<?xml version="1.0" encoding="UTF-8"?>

<!-- generated on 2026-01-10T14:17:50.138728+08:00 by Eclipse SUMO GUI 1.25.0
<sumoConfiguration xmlns:xsi="http://www.w3.org/2001/XMLSchema-instance" xsi:noNamespaceSchemaLocation="http://sumo.dlr.de/xsd/sumoConfiguration.xsd">

    <input>
        <net-file value="osm.net.xml.gz"/>
        <route-files value="osm.passenger.trips.xml"/>
        <additional-files value="osm.poly.xml.gz,output.add.xml"/>
    </input>

    <output>
        <tripinfo-output value="tripinfos.xml"/>
        <statistic-output value="stats.xml"/>
    </output>

    <processing>
        <ignore-route-errors value="true"/>
        <tls.actuated.jam-threshold value="30"/>
    </processing>

    <routing>
        <device.rerouting.adaptation-steps value="18"/>
        <device.rerouting.adaptation-interval value="10"/>
    </routing>

    <report>
        <verbose value="true"/>
        <duration-log.statistics value="true"/>
        <no-step-log value="true"/>
    </report>

    <gui_only>
        <gui-settings-file value="osm.view.xml"/>
    </gui_only>

</sumoConfiguration>
-->

<tripinfos xmlns:xsi="http://www.w3.org/2001/XMLSchema-instance" xsi:noNamespaceSchemaLocation="http://sumo.dlr.de/xsd/tripinfo_file.xsd">
    <tripinfo id="veh33" depart="61.00" departLane="1057384166#1_1" departPos="5.10" departSpeed="0.00" departDelay="0.76" arrival="113.00" arrivalLane="-814837408#1_1" arrivalPos="32.40" arrivalSpeed="8.01" duration="52.00" routeLength="665.87" waitingTime="0.00" waitingCount="0" stopTime="0.00" timeLoss="10.16" rerouteNo="1" devices="tripinfo_veh33 routing_veh33" vType="veh_passenger" speedFactor="0.98" vaporized=""/>
    <tripinfo id="veh33.1" depart="63.00" departLane="1057384166#1_1" departPos="5.10" departSpeed="0.00" departDelay="2.76" arrival="116.00" arrivalLane="-814837408#1_1" arrivalPos="32.40" arrivalSpeed="8.34" duration="53.00" routeLength="665.87" waitingTime="0.00" waitingCount="0" stopTime="0.00" timeLoss="11.85" rerouteNo="1" devices="tripinfo_veh33.1 routing_veh33.1" vType="veh_passenger" speedFactor="1.01" vaporized=""/>
    <tripinfo id="veh20" depart="37.00" departLane="174398012#1_0" departPos="0.20" departSpeed="0.00" departDelay="0.49" arrival="173.00" arrivalLane="-745055614#3_0" arrivalPos="16.62" arrivalSpeed="7.38" duration="136.00" routeLength="1218.47" waitingTime="3.00" waitingCount="1" stopTime="0.00" timeLoss="26.47" rerouteNo="1" devices="tripinfo_veh20 routing_veh20" vType="veh_passenger" speedFactor="0.90" vaporized=""/>
    <tripinfo id="veh5" depart="10.00" departLane="-747853024#1_0" departPos="5.10" departSpeed="0.00" departDelay="0.87" arrival="199.00" arrivalLane="32488152#1_1" arrivalPos="0.20" arrivalSpeed="5.67" duration="189.00" routeLength="1741.33" waitingTime="43.00" waitingCount="2" stopTime="0.00" timeLoss="87.19" rerouteNo="1" devices="tripinfo_veh5 routing_veh5" vType="veh_passenger" speedFactor="0.86" vaporized=""/>
    <tripinfo id="veh9" depart="17.00" departLane="822062850#0_0" departPos="3.16" departSpeed="0.00" departDelay="0.57" arrival="200.00" arrivalLane="1289152450#1_0" arrivalPos="2.26" arrivalSpeed="5.16" duration="183.00" routeLength="1889.65" waitingTime="10.00" waitingCount="1" stopTime="0.00" timeLoss="48.68" rerouteNo="1" devices="tripinfo_veh9 routing_veh9" vType="veh_passenger" speedFactor="1.16" vaporized=""/>
    <tripinfo id="veh5.1" depart="13.00" departLane="-747853024#1_0" departPos="5.10" departSpeed="0.00" departDelay="3.87" arrival="201.00" arrivalLane="32488152#1_1" arrivalPos="0.20" arrivalSpeed="5.27" duration="188.00" routeLength="1741.33" waitingTime="41.00" waitingCount="2" stopTime="0.00" timeLoss="108.93" rerouteNo="1" devices="tripinfo_veh5.1 routing_veh5.1" vType="veh_passenger" speedFactor="1.09" vaporized=""/>
    <tripinfo id="veh53" depart="97.00" departLane="-1008051258#2_0" departPos="5.10" departSpeed="0.00" departDelay="0.24" arrival="201.00" arrivalLane="1263432701_1" arrivalPos="32.34" arrivalSpeed="11.09" duration="104.00" routeLength="849.13" waitingTime="0.00" waitingCount="0" stopTime="0.00" timeLoss="13.85" rerouteNo="1" devices="tripinfo_veh53 routing_veh53" vType="veh_passenger" speedFactor="0.82" vaporized=""/>
    <tripinfo id="veh53.1" depart="100.00" departLane="-1008051258#2_0" departPos="5.10" departSpeed="0.00" departDelay="3.24" arrival="202.00" arrivalLane="1263432701_1" arrivalPos="32.34" arrivalSpeed="14.09" duration="102.00" routeLength="849.13" waitingTime="0.00" waitingCount="0" stopTime="0.00" timeLoss="35.92" rerouteNo="1" devices="tripinfo_veh53.1 routing_veh53.1" vType="veh_passenger" speedFactor="1.12" vaporized=""/>
    <tripinfo id="veh31" depart="57.00" departLane="453672432#0_2" departPos="5.10" departSpeed="0.00" departDelay="0.41" arrival="204.00" arrivalLane="183688028#10_0" arrivalPos="51.78" arrivalSpeed="5.86" duration="147.00" routeLength="1050.68" waitingTime="30.00" waitingCount="3" stopTime="0.00" timeLoss="76.89" rerouteNo="1" devices="tripinfo_veh31 routing_veh31" vType="veh_passenger" speedFactor="0.94" vaporized=""/>
    <tripinfo id="veh20.1" depart="41.00" departLane="174398012#1_0" departPos="0.20" departSpeed="0.00" departDelay="4.49" arrival="206.00" arrivalLane="-745055614#3_0" arrivalPos="16.62" arrivalSpeed="6.83" duration="165.00" routeLength="1218.47" waitingTime="21.00" waitingCount="1" stopTime="0.00" timeLoss="53.06" rerouteNo="1" devices="tripinfo_veh20.1 routing_veh20.1" vType="veh_passenger" speedFactor="0.88" vaporized=""/>
    <tripinfo id="veh31.1" depart="60.00" departLane="453672432#0_2" departPos="5.10" departSpeed="0.00" departDelay="3.41" arrival="206.00" arrivalLane="183688028#10_0" arrivalPos="51.78" arrivalSpeed="8.02" duration="146.00" routeLength="1050.68" waitingTime="27.00" waitingCount="2" stopTime="0.00" timeLoss="82.20" rerouteNo="1" devices="tripinfo_veh31.1 routing_veh31.1" vType="veh_passenger" speedFactor="1.06" vaporized=""/>
    <tripinfo id="veh55" depart="101.00" departLane="747853024#1_1" departPos="5.10" departSpeed="0.00" departDelay="0.59" arrival="208.00" arrivalLane="746423901#2_0" arrivalPos="21.17" arrivalSpeed="12.63" duration="107.00" routeLength="969.45" waitingTime="8.00" waitingCount="2" stopTime="0.00" timeLoss="50.25" rerouteNo="1" devices="tripinfo_veh55 routing_veh55" vType="veh_passenger" speedFactor="0.96" vaporized=""/>
    <tripinfo id="veh55.1" depart="104.00" departLane="747853024#1_1" departPos="5.10" departSpeed="0.00" departDelay="3.59" arrival="210.00" arrivalLane="746423901#2_0" arrivalPos="21.17" arrivalSpeed="14.09" duration="106.00" routeLength="969.45" waitingTime="5.00" waitingCount="2" stopTime="0.00" timeLoss="52.63" rerouteNo="1" devices="tripinfo_veh55.1 routing_veh55.1" vType="veh_passenger" speedFactor="1.04" vaporized=""/>
    <tripinfo id="veh48" depart="88.00" departLane="749858672#1_2" departPos="5.10" departSpeed="0.00" departDelay="0.37" arrival="211.00" arrivalLane="747228979_1" arrivalPos="11.11" arrivalSpeed="8.16" duration="123.00" routeLength="750.44" waitingTime="40.00" waitingCount="4" stopTime="0.00" timeLoss="88.70" rerouteNo="1" devices="tripinfo_veh48 routing_veh48" vType="veh_passenger" speedFactor="1.10" vaporized=""/>
    <tripinfo id="veh48.1" depart="91.00" departLane="749858672#1_2" departPos="5.10" departSpeed="0.00" departDelay="3.37" arrival="214.00" arrivalLane="747228979_1" arrivalPos="11.11" arrivalSpeed="7.48" duration="123.00" routeLength="750.44" waitingTime="33.00" waitingCount="4" stopTime="0.00" timeLoss="82.60" rerouteNo="1" devices="tripinfo_veh48.1 routing_veh48.1" vType="veh_passenger" speedFactor="0.92" vaporized=""/>
    <tripinfo id="veh9.1" depart="20.00" departLane="822062850#0_0" departPos="3.16" departSpeed="0.00" departDelay="3.57" arrival="216.00" arrivalLane="1289152450#1_0" arrivalPos="2.26" arrivalSpeed="5.13" duration="196.00" routeLength="1889.65" waitingTime="8.00" waitingCount="1" stopTime="0.00" timeLoss="43.88" rerouteNo="1" devices="tripinfo_veh9.1 routing_veh9.1" vType="veh_passenger" speedFactor="1.02" vaporized=""/>
    <tripinfo id="veh30" depart="55.00" departLane="747447020#1_1" departPos="5.10" departSpeed="0.00" departDelay="0.23" arrival="219.00" arrivalLane="1212501346_1" arrivalPos="22.72" arrivalSpeed="27.77" duration="164.00" routeLength="1191.07" waitingTime="51.00" waitingCount="4" stopTime="0.00" timeLoss="106.60" rerouteNo="1" devices="tripinfo_veh30 routing_veh30" vType="veh_passenger" speedFactor="1.02" vaporized=""/>
    <tripinfo id="veh30.1" depart="58.00" departLane="747447020#1_1" departPos="5.10" departSpeed="0.00" departDelay="3.23" arrival="221.00" arrivalLane="1212501346_1" arrivalPos="22.72" arrivalSpeed="28.13" duration="163.00" routeLength="1191.07" waitingTime="44.00" waitingCount="3" stopTime="0.00" timeLoss="105.91" rerouteNo="1" devices="tripinfo_veh30.1 routing_veh30.1" vType="veh_passenger" speedFactor="1.02" vaporized=""/>
    <tripinfo id="veh30.2" depart="61.00" departLane="747447020#1_1" departPos="5.10" departSpeed="0.00" departDelay="6.23" arrival="223.00" arrivalLane="1212501346_1" arrivalPos="22.72" arrivalSpeed="25.73" duration="162.00" routeLength="1191.07" waitingTime="43.00" waitingCount="3" stopTime="0.00" timeLoss="102.31" rerouteNo="1" devices="tripinfo_veh30.2 routing_veh30.2" vType="veh_passenger" speedFactor="0.97" vaporized=""/>
    <tripinfo id="veh9.2" depart="23.00" departLane="822062850#0_0" departPos="3.16" departSpeed="0.00" departDelay="6.57" arrival="224.00" arrivalLane="1289152450#1_0" arrivalPos="2.26" arrivalSpeed="5.27" duration="201.00" routeLength="1889.65" waitingTime="6.00" waitingCount="1" stopTime="0.00" timeLoss="48.06" rerouteNo="1" devices="tripinfo_veh9.2 routing_veh9.2" vType="veh_passenger" speedFactor="1.01" vaporized=""/>
    <tripinfo id="veh48.2" depart="93.00" departLane="749858672#1_2" departPos="5.10" departSpeed="0.00" departDelay="5.37" arrival="224.00" arrivalLane="747228979_1" arrivalPos="11.11" arrivalSpeed="7.93" duration="131.00" routeLength="750.44" waitingTime="34.00" waitingCount="4" stopTime="0.00" timeLoss="99.21" rerouteNo="1" devices="tripinfo_veh48.2 routing_veh48.2" vType="veh_passenger" speedFactor="1.18" vaporized=""/>
    <tripinfo id="veh96" depart="176.00" departLane="28539957#2_0" departPos="5.10" departSpeed="0.00" departDelay="0.75" arrival="225.00" arrivalLane="800671112#12_1" arrivalPos="105.93" arrivalSpeed="12.39" duration="49.00" routeLength="403.00" waitingTime="3.00" waitingCount="1" stopTime="0.00" timeLoss="15.26" rerouteNo="1" devices="tripinfo_veh96 routing_veh96" vType="veh_passenger" speedFactor="0.91" vaporized=""/>
    <tripinfo id="veh35" depart="64.00" departLane="216598266_2" departPos="5.10" departSpeed="0.00" departDelay="0.10" arrival="226.00" arrivalLane="-747005523#0_0" arrivalPos="80.57" arrivalSpeed="10.69" duration="162.00" routeLength="1453.51" waitingTime="31.00" waitingCount="3" stopTime="0.00" timeLoss="75.55" rerouteNo="1" devices="tripinfo_veh35 routing_veh35" vType="veh_passenger" speedFactor="1.02" vaporized=""/>
    <tripinfo id="veh66" depart="121.00" departLane="-749514001#1_0" departPos="5.10" departSpeed="0.00" departDelay="0.51" arrival="226.00" arrivalLane="748795306_0" arrivalPos="65.68" arrivalSpeed="15.38" duration="105.00" routeLength="1690.16" waitingTime="0.00" waitingCount="0" stopTime="0.00" timeLoss="20.88" rerouteNo="1" devices="tripinfo_veh66 routing_veh66" vType="veh_passenger" speedFactor="1.14" vaporized=""/>
    <tripinfo id="veh35.1" depart="67.00" departLane="216598266_2" departPos="5.10" departSpeed="0.00" departDelay="3.10" arrival="227.00" arrivalLane="-747005523#0_0" arrivalPos="80.57" arrivalSpeed="10.13" duration="160.00" routeLength="1458.75" waitingTime="30.00" waitingCount="2" stopTime="0.00" timeLoss="68.84" rerouteNo="1" devices="tripinfo_veh35.1 routing_veh35.1" vType="veh_passenger" speedFactor="0.97" vaporized=""/>
    <tripinfo id="veh96.1" depart="179.00" departLane="28539957#2_0" departPos="5.10" departSpeed="0.00" departDelay="3.75" arrival="227.00" arrivalLane="800671112#12_1" arrivalPos="105.93" arrivalSpeed="13.19" duration="48.00" routeLength="403.00" waitingTime="1.00" waitingCount="1" stopTime="0.00" timeLoss="15.12" rerouteNo="1" devices="tripinfo_veh96.1 routing_veh96.1" vType="veh_passenger" speedFactor="0.96" vaporized=""/>
    <tripinfo id="veh2" depart="4.00" departLane="747951006_3" departPos="5.10" departSpeed="0.00" departDelay="0.35" arrival="228.00" arrivalLane="-23296779#0_0" arrivalPos="47.28" arrivalSpeed="13.75" duration="224.00" routeLength="1887.32" waitingTime="71.00" waitingCount="1" stopTime="0.00" timeLoss="111.98" rerouteNo="1" devices="tripinfo_veh2 routing_veh2" vType="veh_passenger" speedFactor="1.01" vaporized=""/>
    <tripinfo id="veh96.2" depart="182.00" departLane="28539957#2_0" departPos="5.10" departSpeed="0.00" departDelay="6.75" arrival="229.00" arrivalLane="800671112#12_1" arrivalPos="105.93" arrivalSpeed="13.73" duration="47.00" routeLength="403.00" waitingTime="0.00" waitingCount="0" stopTime="0.00" timeLoss="17.15" rerouteNo="1" devices="tripinfo_veh96.2 routing_veh96.2" vType="veh_passenger" speedFactor="1.04" vaporized=""/>
    <tripinfo id="veh102" depart="187.00" departLane="746559636_0" departPos="0.20" departSpeed="0.00" departDelay="0.79" arrival="230.00" arrivalLane="569219184_0" arrivalPos="22.12" arrivalSpeed="14.89" duration="43.00" routeLength="379.97" waitingTime="10.00" waitingCount="1" stopTime="0.00" timeLoss="28.80" rerouteNo="1" devices="tripinfo_veh102 routing_veh102" vType="veh_passenger" speedFactor="1.04" vaporized=""/>
    <tripinfo id="veh2.1" depart="7.00" departLane="747951006_3" departPos="5.10" departSpeed="0.00" departDelay="3.35" arrival="232.00" arrivalLane="-23296779#0_0" arrivalPos="47.28" arrivalSpeed="14.51" duration="225.00" routeLength="1887.32" waitingTime="69.00" waitingCount="2" stopTime="0.00" timeLoss="120.12" rerouteNo="1" devices="tripinfo_veh2.1 routing_veh2.1" vType="veh_passenger" speedFactor="1.08" vaporized=""/>
    <tripinfo id="veh102.1" depart="190.00" departLane="746559636_0" departPos="0.20" departSpeed="0.00" departDelay="3.79" arrival="232.00" arrivalLane="569219184_0" arrivalPos="22.12" arrivalSpeed="16.36" duration="42.00" routeLength="379.97" waitingTime="8.00" waitingCount="1" stopTime="0.00" timeLoss="29.27" rerouteNo="1" devices="tripinfo_veh102.1 routing_veh102.1" vType="veh_passenger" speedFactor="1.14" vaporized=""/>
    <tripinfo id="veh23.1" depart="43.00" departLane="-4940135_0" departPos="5.10" departSpeed="8.04" departDelay="1.01" arrival="233.00" arrivalLane="705076645_1" arrivalPos="48.08" arrivalSpeed="26.79" duration="190.00" routeLength="1810.94" waitingTime="46.00" waitingCount="5" stopTime="0.00" timeLoss="117.18" rerouteNo="1" devices="tripinfo_veh23.1 routing_veh23.1" vType="veh_passenger" speedFactor="1.00" vaporized=""/>
    <tripinfo id="veh29" depart="53.00" departLane="-746807318#0_0" departPos="5.10" departSpeed="0.00" departDelay="0.06" arrival="234.00" arrivalLane="814837403#3_0" arrivalPos="19.65" arrivalSpeed="10.00" duration="181.00" routeLength="1927.93" waitingTime="34.00" waitingCount="3" stopTime="0.00" timeLoss="74.92" rerouteNo="1" devices="tripinfo_veh29 routing_veh29" vType="veh_passenger" speedFactor="0.91" vaporized=""/>
    <tripinfo id="veh23" depart="42.00" departLane="-4940135_0" departPos="5.10" departSpeed="11.15" departDelay="0.01" arrival="235.00" arrivalLane="705076645_1" arrivalPos="48.08" arrivalSpeed="27.85" duration="193.00" routeLength="1810.94" waitingTime="47.00" waitingCount="5" stopTime="0.00" timeLoss="120.17" rerouteNo="1" devices="tripinfo_veh23 routing_veh23" vType="veh_passenger" speedFactor="1.00" vaporized=""/>
    <tripinfo id="veh29.1" depart="56.00" departLane="-746807318#0_0" departPos="5.10" departSpeed="0.00" departDelay="3.06" arrival="236.00" arrivalLane="814837403#3_0" arrivalPos="19.65" arrivalSpeed="10.42" duration="180.00" routeLength="1927.93" waitingTime="29.00" waitingCount="1" stopTime="0.00" timeLoss="86.68" rerouteNo="1" devices="tripinfo_veh29.1 routing_veh29.1" vType="veh_passenger" speedFactor="1.04" vaporized=""/>
    <tripinfo id="veh23.2" depart="44.00" departLane="-4940135_0" departPos="5.10" departSpeed="3.27" departDelay="2.01" arrival="238.00" arrivalLane="705076645_1" arrivalPos="48.08" arrivalSpeed="24.17" duration="194.00" routeLength="1810.94" waitingTime="36.00" waitingCount="4" stopTime="0.00" timeLoss="112.26" rerouteNo="1" devices="tripinfo_veh23.2 routing_veh23.2" vType="veh_passenger" speedFactor="0.90" vaporized=""/>
    <tripinfo id="veh37" depart="68.00" departLane="-28536226_0" departPos="5.10" departSpeed="14.48" departDelay="0.45" arrival="240.00" arrivalLane="-174398023#2_1" arrivalPos="85.02" arrivalSpeed="14.10" duration="172.00" routeLength="1912.27" waitingTime="23.00" waitingCount="2" stopTime="0.00" timeLoss="55.38" rerouteNo="1" devices="tripinfo_veh37 routing_veh37" vType="veh_passenger" speedFactor="1.04" vaporized=""/>
    <tripinfo id="veh37.1" depart="69.00" departLane="-28536226_0" departPos="5.10" departSpeed="10.99" departDelay="1.45" arrival="245.00" arrivalLane="-174398023#2_1" arrivalPos="85.02" arrivalSpeed="13.70" duration="176.00" routeLength="1912.27" waitingTime="18.00" waitingCount="2" stopTime="0.00" timeLoss="55.34" rerouteNo="1" devices="tripinfo_veh37.1 routing_veh37.1" vType="veh_passenger" speedFactor="1.01" vaporized=""/>
    <tripinfo id="veh50" depart="92.00" departLane="32906099#2_0" departPos="5.10" departSpeed="0.00" departDelay="0.72" arrival="248.00" arrivalLane="-28997011#2_0" arrivalPos="33.45" arrivalSpeed="14.17" duration="156.00" routeLength="1618.48" waitingTime="1.00" waitingCount="1" stopTime="0.00" timeLoss="36.44" rerouteNo="1" devices="tripinfo_veh50 routing_veh50" vType="veh_passenger" speedFactor="1.07" vaporized=""/>
    <tripinfo id="veh3" depart="6.00" departLane="-747447020#1_1" departPos="5.10" departSpeed="0.00" departDelay="0.52" arrival="253.00" arrivalLane="28539739#6_0" arrivalPos="21.49" arrivalSpeed="13.69" duration="247.00" routeLength="2353.74" waitingTime="11.00" waitingCount="1" stopTime="0.00" timeLoss="58.34" rerouteNo="1" devices="tripinfo_veh3 routing_veh3" vType="veh_passenger" speedFactor="1.03" vaporized=""/>
    <tripinfo id="veh27" depart="50.00" departLane="-749518015#0_1" departPos="5.10" departSpeed="0.00" departDelay="0.71" arrival="257.00" arrivalLane="-1354862882_0" arrivalPos="31.71" arrivalSpeed="4.10" duration="207.00" routeLength="3275.77" waitingTime="8.00" waitingCount="1" stopTime="0.00" timeLoss="53.35" rerouteNo="1" devices="tripinfo_veh27 routing_veh27" vType="veh_passenger" speedFactor="0.94" vaporized=""/>
    <tripinfo id="veh32" depart="59.00" departLane="750563083#0_2" departPos="5.10" departSpeed="0.00" departDelay="0.58" arrival="260.00" arrivalLane="248903712_1" arrivalPos="155.35" arrivalSpeed="25.50" duration="201.00" routeLength="1583.16" waitingTime="67.00" waitingCount="5" stopTime="0.00" timeLoss="129.36" rerouteNo="1" devices="tripinfo_veh32 routing_veh32" vType="veh_passenger" speedFactor="0.96" vaporized=""/>
    <tripinfo id="veh64" depart="117.00" departLane="1338912465_0" departPos="5.10" departSpeed="0.00" departDelay="0.16" arrival="260.00" arrivalLane="32488152#0_1" arrivalPos="0.20" arrivalSpeed="2.85" duration="143.00" routeLength="807.93" waitingTime="50.00" waitingCount="4" stopTime="0.00" timeLoss="88.41" rerouteNo="1" devices="tripinfo_veh64 routing_veh64" vType="veh_passenger" speedFactor="1.06" vaporized=""/>
    <tripinfo id="veh27.2" depart="56.00" departLane="-749518015#0_1" departPos="5.10" departSpeed="0.00" departDelay="6.71" arrival="261.00" arrivalLane="-1354862882_0" arrivalPos="31.71" arrivalSpeed="3.77" duration="205.00" routeLength="3275.77" waitingTime="0.00" waitingCount="0" stopTime="0.00" timeLoss="44.52" rerouteNo="1" devices="tripinfo_veh27.2 routing_veh27.2" vType="veh_passenger" speedFactor="0.91" vaporized=""/>
    <tripinfo id="veh32.1" depart="62.00" departLane="750563083#0_2" departPos="5.10" departSpeed="0.00" departDelay="3.58" arrival="262.00" arrivalLane="248903712_1" arrivalPos="155.35" arrivalSpeed="26.06" duration="200.00" routeLength="1583.16" waitingTime="62.00" waitingCount="5" stopTime="0.00" timeLoss="129.85" rerouteNo="1" devices="tripinfo_veh32.1 routing_veh32.1" vType="veh_passenger" speedFactor="0.98" vaporized=""/>
    <tripinfo id="veh50.1" depart="95.00" departLane="32906099#2_0" departPos="5.10" departSpeed="0.00" departDelay="3.72" arrival="263.00" arrivalLane="-28997011#2_0" arrivalPos="33.45" arrivalSpeed="12.33" duration="168.00" routeLength="1618.48" waitingTime="0.00" waitingCount="0" stopTime="0.00" timeLoss="31.95" rerouteNo="1" devices="tripinfo_veh50.1 routing_veh50.1" vType="veh_passenger" speedFactor="0.94" vaporized=""/>
    <tripinfo id="veh64.1" depart="120.00" departLane="1338912465_0" departPos="5.10" departSpeed="0.00" departDelay="3.16" arrival="263.00" arrivalLane="32488152#0_1" arrivalPos="0.20" arrivalSpeed="3.17" duration="143.00" routeLength="807.93" waitingTime="47.00" waitingCount="4" stopTime="0.00" timeLoss="90.97" rerouteNo="1" devices="tripinfo_veh64.1 routing_veh64.1" vType="veh_passenger" speedFactor="1.12" vaporized=""/>
    <tripinfo id="veh115" depart="210.00" departLane="23296777#1_0" departPos="5.10" departSpeed="0.00" departDelay="0.06" arrival="263.00" arrivalLane="-1072176585_0" arrivalPos="24.93" arrivalSpeed="12.98" duration="53.00" routeLength="497.96" waitingTime="0.00" waitingCount="0" stopTime="0.00" timeLoss="12.68" rerouteNo="1" devices="tripinfo_veh115 routing_veh115" vType="veh_passenger" speedFactor="0.97" vaporized=""/>
    <tripinfo id="veh1" depart="2.00" departLane="711231847#2_0" departPos="5.10" departSpeed="0.00" departDelay="0.17" arrival="264.00" arrivalLane="4940269#4_0" arrivalPos="25.79" arrivalSpeed="25.87" duration="262.00" routeLength="2302.56" waitingTime="73.00" waitingCount="7" stopTime="0.00" timeLoss="151.45" rerouteNo="1" devices="tripinfo_veh1 routing_veh1" vType="veh_passenger" speedFactor="0.94" vaporized=""/>
    <tripinfo id="veh26" depart="48.00" departLane="746785987#1_1" departPos="5.10" departSpeed="0.00" departDelay="0.54" arrival="265.00" arrivalLane="744632163#0_0" arrivalPos="0.20" arrivalSpeed="7.37" duration="217.00" routeLength="1283.20" waitingTime="68.00" waitingCount="6" stopTime="0.00" timeLoss="126.07" rerouteNo="1" devices="tripinfo_veh26 routing_veh26" vType="veh_passenger" speedFactor="1.02" vaporized=""/>
    <tripinfo id="veh50.2" depart="98.00" departLane="32906099#2_0" departPos="5.10" departSpeed="0.00" departDelay="6.72" arrival="265.00" arrivalLane="-28997011#2_0" arrivalPos="33.45" arrivalSpeed="15.20" duration="167.00" routeLength="1618.48" waitingTime="0.00" waitingCount="0" stopTime="0.00" timeLoss="50.66" rerouteNo="1" devices="tripinfo_veh50.2 routing_veh50.2" vType="veh_passenger" speedFactor="1.10" vaporized=""/>
    <tripinfo id="veh27.1" depart="53.00" departLane="-749518015#0_1" departPos="5.10" departSpeed="0.00" departDelay="3.71" arrival="266.00" arrivalLane="-1354862882_0" arrivalPos="31.71" arrivalSpeed="4.83" duration="213.00" routeLength="3269.28" waitingTime="2.00" waitingCount="1" stopTime="0.00" timeLoss="48.98" rerouteNo="1" devices="tripinfo_veh27.1 routing_veh27.1" vType="veh_passenger" speedFactor="0.88" vaporized=""/>
    <tripinfo id="veh80" depart="147.00" departLane="896483082#0_0" departPos="0.20" departSpeed="0.00" departDelay="0.95" arrival="266.00" arrivalLane="770797805_0" arrivalPos="68.45" arrivalSpeed="12.85" duration="119.00" routeLength="1087.28" waitingTime="0.00" waitingCount="0" stopTime="0.00" timeLoss="20.46" rerouteNo="1" devices="tripinfo_veh80 routing_veh80" vType="veh_passenger" speedFactor="1.00" vaporized=""/>
    <tripinfo id="veh26.1" depart="51.00" departLane="746785987#1_1" departPos="5.10" departSpeed="0.00" departDelay="3.54" arrival="268.00" arrivalLane="744632163#0_0" arrivalPos="0.20" arrivalSpeed="7.41" duration="217.00" routeLength="1283.20" waitingTime="61.00" waitingCount="6" stopTime="0.00" timeLoss="122.96" rerouteNo="1" devices="tripinfo_veh26.1 routing_veh26.1" vType="veh_passenger" speedFactor="0.99" vaporized=""/>
    <tripinfo id="veh115.1" depart="213.00" departLane="23296777#1_0" departPos="5.10" departSpeed="0.00" departDelay="3.06" arrival="269.00" arrivalLane="-1072176585_0" arrivalPos="24.93" arrivalSpeed="13.18" duration="56.00" routeLength="497.96" waitingTime="0.00" waitingCount="0" stopTime="0.00" timeLoss="15.92" rerouteNo="1" devices="tripinfo_veh115.1 routing_veh115.1" vType="veh_passenger" speedFactor="0.99" vaporized=""/>
    <tripinfo id="veh34" depart="63.00" departLane="28996820#0_0" departPos="5.10" departSpeed="15.10" departDelay="0.93" arrival="270.00" arrivalLane="-96489260#3_1" arrivalPos="10.06" arrivalSpeed="6.97" duration="207.00" routeLength="1839.49" waitingTime="65.00" waitingCount="3" stopTime="0.00" timeLoss="120.40" rerouteNo="1" devices="tripinfo_veh34 routing_veh34" vType="veh_passenger" speedFactor="1.09" vaporized=""/>
    <tripinfo id="veh90" depart="165.00" departLane="-184852743#1_0" departPos="5.10" departSpeed="0.00" departDelay="0.70" arrival="271.00" arrivalLane="32488019#0_0" arrivalPos="0.11" arrivalSpeed="11.66" duration="106.00" routeLength="746.88" waitingTime="36.00" waitingCount="2" stopTime="0.00" timeLoss="60.47" rerouteNo="1" devices="tripinfo_veh90 routing_veh90" vType="veh_passenger" speedFactor="0.91" vaporized=""/>
    <tripinfo id="veh34.1" depart="64.00" departLane="28996820#0_0" departPos="5.10" departSpeed="12.81" departDelay="1.93" arrival="273.00" arrivalLane="-96489260#3_1" arrivalPos="10.06" arrivalSpeed="7.65" duration="209.00" routeLength="1839.49" waitingTime="56.00" waitingCount="3" stopTime="0.00" timeLoss="117.93" rerouteNo="1" devices="tripinfo_veh34.1 routing_veh34.1" vType="veh_passenger" speedFactor="1.03" vaporized=""/>
    <tripinfo id="veh87" depart="159.00" departLane="822062850#0_0" departPos="3.16" departSpeed="0.00" departDelay="0.18" arrival="273.00" arrivalLane="96489260#0_0" arrivalPos="32.90" arrivalSpeed="8.03" duration="114.00" routeLength="1115.94" waitingTime="35.00" waitingCount="1" stopTime="0.00" timeLoss="55.75" rerouteNo="1" devices="tripinfo_veh87 routing_veh87" vType="veh_passenger" speedFactor="1.00" vaporized=""/>
    <tripinfo id="veh115.2" depart="216.00" departLane="23296777#1_0" departPos="5.10" departSpeed="0.00" departDelay="6.06" arrival="273.00" arrivalLane="-1072176585_0" arrivalPos="24.93" arrivalSpeed="12.15" duration="57.00" routeLength="497.96" waitingTime="0.00" waitingCount="0" stopTime="0.00" timeLoss="20.46" rerouteNo="1" devices="tripinfo_veh115.2 routing_veh115.2" vType="veh_passenger" speedFactor="1.08" vaporized=""/>
    <tripinfo id="veh90.1" depart="168.00" departLane="-184852743#1_0" departPos="5.10" departSpeed="0.00" departDelay="3.70" arrival="274.00" arrivalLane="32488019#0_0" arrivalPos="0.11" arrivalSpeed="13.77" duration="106.00" routeLength="746.88" waitingTime="33.00" waitingCount="2" stopTime="0.00" timeLoss="62.42" rerouteNo="1" devices="tripinfo_veh90.1 routing_veh90.1" vType="veh_passenger" speedFactor="1.00" vaporized=""/>
    <tripinfo id="veh87.1" depart="162.00" departLane="822062850#0_0" departPos="3.16" departSpeed="0.00" departDelay="3.18" arrival="275.00" arrivalLane="96489260#0_0" arrivalPos="32.90" arrivalSpeed="8.33" duration="113.00" routeLength="1115.94" waitingTime="33.00" waitingCount="1" stopTime="0.00" timeLoss="60.59" rerouteNo="1" devices="tripinfo_veh87.1 routing_veh87.1" vType="veh_passenger" speedFactor="1.10" vaporized=""/>
    <tripinfo id="veh5.2" depart="16.00" departLane="-747853024#1_0" departPos="5.10" departSpeed="0.00" departDelay="6.87" arrival="278.00" arrivalLane="32488152#1_1" arrivalPos="0.20" arrivalSpeed="4.64" duration="262.00" routeLength="1741.33" waitingTime="109.00" waitingCount="6" stopTime="0.00" timeLoss="178.01" rerouteNo="1" devices="tripinfo_veh5.2 routing_veh5.2" vType="veh_passenger" speedFactor="1.03" vaporized=""/>
    <tripinfo id="veh25.2" depart="52.00" departLane="96487801#3_0" departPos="5.10" departSpeed="0.00" departDelay="6.36" arrival="288.00" arrivalLane="440588496#2_0" arrivalPos="22.60" arrivalSpeed="11.30" duration="236.00" routeLength="2772.67" waitingTime="9.00" waitingCount="3" stopTime="0.00" timeLoss="88.24" rerouteNo="1" devices="tripinfo_veh25.2 routing_veh25.2" vType="veh_passenger" speedFactor="1.12" vaporized=""/>
    <tripinfo id="veh80.1" depart="150.00" departLane="896483082#0_0" departPos="0.20" departSpeed="0.00" departDelay="3.95" arrival="288.00" arrivalLane="770797805_0" arrivalPos="68.45" arrivalSpeed="11.46" duration="138.00" routeLength="1087.28" waitingTime="0.00" waitingCount="0" stopTime="0.00" timeLoss="20.92" rerouteNo="1" devices="tripinfo_veh80.1 routing_veh80.1" vType="veh_passenger" speedFactor="0.84" vaporized=""/>
    <tripinfo id="veh3.2" depart="12.00" departLane="-747447020#1_1" departPos="5.10" departSpeed="0.00" departDelay="6.52" arrival="290.00" arrivalLane="28539739#6_0" arrivalPos="21.49" arrivalSpeed="14.43" duration="278.00" routeLength="2353.74" waitingTime="29.00" waitingCount="2" stopTime="0.00" timeLoss="93.03" rerouteNo="1" devices="tripinfo_veh3.2 routing_veh3.2" vType="veh_passenger" speedFactor="1.05" vaporized=""/>
    <tripinfo id="veh112" depart="205.00" departLane="746811049#1_0" departPos="5.10" departSpeed="0.00" departDelay="0.54" arrival="290.00" arrivalLane="-27260010_1" arrivalPos="45.52" arrivalSpeed="26.74" duration="85.00" routeLength="935.69" waitingTime="13.00" waitingCount="1" stopTime="0.00" timeLoss="35.31" rerouteNo="1" devices="tripinfo_veh112 routing_veh112" vType="veh_passenger" speedFactor="1.05" vaporized=""/>