<?xml version="1.0" encoding="UTF-8"?>

<!-- generated on 2026-01-14T11:53:10.711346+08:00 by Eclipse SUMO GUI 1.25.0
<sumoConfiguration xmlns:xsi="http://www.w3.org/2001/XMLSchema-instance" xsi:noNamespaceSchemaLocation="http://sumo.dlr.de/xsd/sumoConfiguration.xsd">

    <input>
        <net-file value="final_map.net.xml"/>
        <route-files value="trips_high.xml"/>
        <additional-files value="osm.poly.xml.gz,output.add.xml,vtypes.add.xml"/>
    </input>

    <output>
        <summary-output value="data\data_selfish_high_summary.xml"/>
        <tripinfo-output value="data\data_selfish_high_tripinfo.xml"/>
        <statistic-output value="data\data_selfish_high_stats.xml"/>
    </output>

    <processing>
        <ignore-route-errors value="true"/>
        <time-to-teleport value="300"/>
        <tls.actuated.jam-threshold value="30"/>
    </processing>

    <routing>
        <device.rerouting.adaptation-steps value="18"/>
        <device.rerouting.adaptation-interval value="10"/>
    </routing>

    <report>
        <verbose value="true"/>
        <duration-log.statistics value="true"/>
        <no-step-log value="true"/>
    </report>

    <emissions>
        <device.emissions.probability value="1.0"/>
    </emissions>

    <gui_only>
        <gui-settings-file value="osm.view.xml"/>
    </gui_only>

</sumoConfiguration>
-->

<tripinfos xmlns:xsi="http://www.w3.org/2001/XMLSchema-instance" xsi:noNamespaceSchemaLocation="http://sumo.dlr.de/xsd/tripinfo_file.xsd">
    <tripinfo id="12" depart="9.00" departLane="23296741#0_0" departPos="4.60" departSpeed="0.00" departDelay="0.00" arrival="37.00" arrivalLane="896483082#1_0" arrivalPos="7.37" arrivalSpeed="11.15" duration="28.00" routeLength="261.74" waitingTime="0.00" waitingCount="0" stopTime="0.00" timeLoss="8.05" rerouteNo="1" devices="tripinfo_12 routing_12 emissions_12" vType="thesis_car" speedFactor="1.05" vaporized="">
        <emissions CO_abs="1902.98" CO2_abs="109874.90" HC_abs="11.22" PMx_abs="2.02" NOx_abs="45.67" fuel_abs="35045.07" electricity_abs="0.00"/>
    </tripinfo>
    <tripinfo id="32" depart="24.00" departLane="-215516157_0" departPos="4.60" departSpeed="0.00" departDelay="0.00" arrival="38.00" arrivalLane="-1281884999_0" arrivalPos="17.68" arrivalSpeed="13.34" duration="14.00" routeLength="99.54" waitingTime="0.00" waitingCount="0" stopTime="0.00" timeLoss="5.78" rerouteNo="1" devices="tripinfo_32 routing_32 emissions_32" vType="thesis_car" speedFactor="1.01" vaporized="">
        <emissions CO_abs="1227.15" CO2_abs="59161.80" HC_abs="6.99" PMx_abs="1.19" NOx_abs="25.41" fuel_abs="18869.91" electricity_abs="0.00"/>
    </tripinfo>
    <tripinfo id="15" depart="12.00" departLane="-28996951_0" departPos="4.60" departSpeed="0.00" departDelay="0.75" arrival="86.00" arrivalLane="-28996992#0_0" arrivalPos="47.42" arrivalSpeed="11.77" duration="74.00" routeLength="474.30" waitingTime="1.00" waitingCount="1" stopTime="0.00" timeLoss="19.71" rerouteNo="1" devices="tripinfo_15 routing_15 emissions_15" vType="thesis_car" speedFactor="0.93" vaporized="">
        <emissions CO_abs="4826.72" CO2_abs="196321.27" HC_abs="26.50" PMx_abs="3.57" NOx_abs="81.85" fuel_abs="62618.42" electricity_abs="0.00"/>
    </tripinfo>
    <tripinfo id="39" depart="30.00" departLane="-23296751#2_0" departPos="4.60" departSpeed="0.00" departDelay="0.75" arrival="87.00" arrivalLane="1064374314#1_0" arrivalPos="38.86" arrivalSpeed="11.53" duration="57.00" routeLength="528.54" waitingTime="0.00" waitingCount="0" stopTime="0.00" timeLoss="9.09" rerouteNo="1" devices="tripinfo_39 routing_39 emissions_39" vType="thesis_car" speedFactor="0.90" vaporized="">
        <emissions CO_abs="2603.06" CO2_abs="158071.97" HC_abs="15.41" PMx_abs="2.49" NOx_abs="62.73" fuel_abs="50418.14" electricity_abs="0.00"/>
    </tripinfo>
    <tripinfo id="77" depart="58.00" departLane="894940513_0" departPos="4.60" departSpeed="0.00" departDelay="0.25" arrival="90.00" arrivalLane="23296754#1_0" arrivalPos="72.73" arrivalSpeed="13.24" duration="32.00" routeLength="292.72" waitingTime="0.00" waitingCount="0" stopTime="0.00" timeLoss="7.98" rerouteNo="1" devices="tripinfo_77 routing_77 emissions_77" vType="thesis_car" speedFactor="0.98" vaporized="">
        <emissions CO_abs="2102.73" CO2_abs="116941.39" HC_abs="12.28" PMx_abs="2.08" NOx_abs="48.14" fuel_abs="37299.08" electricity_abs="0.00"/>
    </tripinfo>
    <tripinfo id="21" depart="16.00" departLane="28539908_0" departPos="4.60" departSpeed="0.00" departDelay="0.25" arrival="99.00" arrivalLane="267646774_0" arrivalPos="70.87" arrivalSpeed="13.68" duration="83.00" routeLength="994.64" waitingTime="0.00" waitingCount="0" stopTime="0.00" timeLoss="10.30" rerouteNo="1" devices="tripinfo_21 routing_21 emissions_21" vType="thesis_car" speedFactor="1.01" vaporized="">
        <emissions CO_abs="2700.36" CO2_abs="232438.87" HC_abs="17.29" PMx_abs="3.46" NOx_abs="89.14" fuel_abs="74137.56" electricity_abs="0.00"/>
    </tripinfo>
    <tripinfo id="46" depart="35.00" departLane="28997018#0_0" departPos="4.60" departSpeed="0.00" departDelay="0.50" arrival="103.00" arrivalLane="174398016#1_1" arrivalPos="77.69" arrivalSpeed="12.64" duration="68.00" routeLength="1003.80" waitingTime="0.00" waitingCount="0" stopTime="0.00" timeLoss="11.80" rerouteNo="1" devices="tripinfo_46 routing_46 emissions_46" vType="thesis_car" speedFactor="1.00" vaporized="">
        <emissions CO_abs="4439.82" CO2_abs="297535.70" HC_abs="27.21" PMx_abs="5.80" NOx_abs="120.70" fuel_abs="94899.79" electricity_abs="0.00"/>
    </tripinfo>
    <tripinfo id="38" depart="29.00" departLane="-354718285_0" departPos="4.60" departSpeed="0.00" departDelay="0.50" arrival="107.00" arrivalLane="28539493#1_0" arrivalPos="53.76" arrivalSpeed="14.05" duration="78.00" routeLength="929.05" waitingTime="0.00" waitingCount="0" stopTime="0.00" timeLoss="13.58" rerouteNo="1" devices="tripinfo_38 routing_38 emissions_38" vType="thesis_car" speedFactor="1.10" vaporized="">
        <emissions CO_abs="3630.80" CO2_abs="262872.62" HC_abs="22.26" PMx_abs="4.46" NOx_abs="104.58" fuel_abs="83844.27" electricity_abs="0.00"/>
    </tripinfo>
    <tripinfo id="79" depart="60.00" departLane="184731538_0" departPos="4.60" departSpeed="0.00" departDelay="0.75" arrival="107.00" arrivalLane="586354144#1_0" arrivalPos="5.76" arrivalSpeed="9.29" duration="47.00" routeLength="447.25" waitingTime="0.00" waitingCount="0" stopTime="0.00" timeLoss="14.44" rerouteNo="1" devices="tripinfo_79 routing_79 emissions_79" vType="thesis_car" speedFactor="1.09" vaporized="">
        <emissions CO_abs="2927.57" CO2_abs="171105.49" HC_abs="17.30" PMx_abs="3.20" NOx_abs="71.31" fuel_abs="54574.74" electricity_abs="0.00"/>
    </tripinfo>
    <tripinfo id="117" depart="88.00" departLane="706539634#0_0" departPos="2.48" departSpeed="0.00" departDelay="0.25" arrival="110.00" arrivalLane="896943854_0" arrivalPos="28.87" arrivalSpeed="12.39" duration="22.00" routeLength="159.30" waitingTime="0.00" waitingCount="0" stopTime="0.00" timeLoss="7.73" rerouteNo="1" devices="tripinfo_117 routing_117 emissions_117" vType="thesis_car" speedFactor="1.00" vaporized="">
        <emissions CO_abs="1856.31" CO2_abs="93313.52" HC_abs="10.66" PMx_abs="1.81" NOx_abs="39.69" fuel_abs="29762.77" electricity_abs="0.00"/>
    </tripinfo>
    <tripinfo id="17" depart="13.00" departLane="-23296745#1_0" departPos="4.60" departSpeed="0.00" departDelay="0.25" arrival="114.00" arrivalLane="-28996500#0_0" arrivalPos="63.26" arrivalSpeed="12.84" duration="101.00" routeLength="952.28" waitingTime="0.00" waitingCount="0" stopTime="0.00" timeLoss="20.63" rerouteNo="1" devices="tripinfo_17 routing_17 emissions_17" vType="thesis_car" speedFactor="0.94" vaporized="">
        <emissions CO_abs="5065.69" CO2_abs="310900.21" HC_abs="30.23" PMx_abs="5.33" NOx_abs="126.32" fuel_abs="99163.21" electricity_abs="0.00"/>
    </tripinfo>
    <tripinfo id="47" depart="36.00" departLane="313048179#1_0" departPos="4.60" departSpeed="0.00" departDelay="0.75" arrival="115.00" arrivalLane="145087237#1_0" arrivalPos="9.31" arrivalSpeed="11.89" duration="79.00" routeLength="688.37" waitingTime="0.00" waitingCount="0" stopTime="0.00" timeLoss="13.98" rerouteNo="1" devices="tripinfo_47 routing_47 emissions_47" vType="thesis_car" speedFactor="0.90" vaporized="">
        <emissions CO_abs="3860.52" CO2_abs="224651.51" HC_abs="22.78" PMx_abs="3.90" NOx_abs="92.10" fuel_abs="71653.79" electricity_abs="0.00"/>
    </tripinfo>
    <tripinfo id="40" depart="30.00" departLane="1341838025_2" departPos="4.59" departSpeed="0.00" departDelay="0.00" arrival="116.00" arrivalLane="770797793_0" arrivalPos="0.20" arrivalSpeed="7.86" duration="86.00" routeLength="1063.34" waitingTime="3.00" waitingCount="1" stopTime="0.00" timeLoss="31.77" rerouteNo="1" devices="tripinfo_40 routing_40 emissions_40" vType="thesis_car" speedFactor="1.03" vaporized="">
        <emissions CO_abs="6300.88" CO2_abs="363630.93" HC_abs="37.24" PMx_abs="7.16" NOx_abs="149.46" fuel_abs="115981.40" electricity_abs="0.00"/>
    </tripinfo>
    <tripinfo id="67" depart="51.00" departLane="902908203_0" departPos="4.60" departSpeed="0.00" departDelay="0.75" arrival="116.00" arrivalLane="-184731538_0" arrivalPos="21.11" arrivalSpeed="9.59" duration="65.00" routeLength="614.88" waitingTime="0.00" waitingCount="0" stopTime="0.00" timeLoss="12.69" rerouteNo="1" devices="tripinfo_67 routing_67 emissions_67" vType="thesis_car" speedFactor="0.91" vaporized="">
        <emissions CO_abs="2936.18" CO2_abs="185914.14" HC_abs="17.64" PMx_abs="3.01" NOx_abs="74.28" fuel_abs="59298.42" electricity_abs="0.00"/>
    </tripinfo>
    <tripinfo id="20" depart="15.00" departLane="-354718285_0" departPos="4.60" departSpeed="0.00" departDelay="0.00" arrival="124.00" arrivalLane="747333148#0_0" arrivalPos="1.58" arrivalSpeed="5.91" duration="109.00" routeLength="936.68" waitingTime="0.00" waitingCount="0" stopTime="0.00" timeLoss="22.58" rerouteNo="1" devices="tripinfo_20 routing_20 emissions_20" vType="thesis_car" speedFactor="1.02" vaporized="">
        <emissions CO_abs="6209.30" CO2_abs="328522.37" HC_abs="35.69" PMx_abs="5.74" NOx_abs="133.99" fuel_abs="104784.30" electricity_abs="0.00"/>
    </tripinfo>
    <tripinfo id="153" depart="115.00" departLane="-28995806#2_0" departPos="4.60" departSpeed="0.00" departDelay="0.25" arrival="130.00" arrivalLane="28995806#2_0" arrivalPos="38.59" arrivalSpeed="12.15" duration="15.00" routeLength="77.25" waitingTime="0.00" waitingCount="0" stopTime="0.00" timeLoss="7.17" rerouteNo="0" devices="tripinfo_153 routing_153 emissions_153" vType="thesis_car" speedFactor="0.93" vaporized="">
        <emissions CO_abs="1277.20" CO2_abs="55394.25" HC_abs="7.12" PMx_abs="1.09" NOx_abs="23.72" fuel_abs="17668.34" electricity_abs="0.00"/>
    </tripinfo>
    <tripinfo id="50" depart="38.00" departLane="744397363#0_0" departPos="4.60" departSpeed="0.00" departDelay="0.50" arrival="131.00" arrivalLane="748795297_0" arrivalPos="5.50" arrivalSpeed="22.71" duration="93.00" routeLength="1105.74" waitingTime="16.00" waitingCount="2" stopTime="0.00" timeLoss="44.63" rerouteNo="1" devices="tripinfo_50 routing_50 emissions_50" vType="thesis_car" speedFactor="0.85" vaporized="">
        <emissions CO_abs="9792.55" CO2_abs="486261.29" HC_abs="56.29" PMx_abs="10.30" NOx_abs="205.58" fuel_abs="155094.86" electricity_abs="0.00"/>
    </tripinfo>
    <tripinfo id="85" depart="67.00" departLane="27274180_0" departPos="4.34" departSpeed="0.00" departDelay="3.25" arrival="136.00" arrivalLane="27274186_0" arrivalPos="14.23" arrivalSpeed="10.65" duration="69.00" routeLength="526.64" waitingTime="1.00" waitingCount="1" stopTime="0.00" timeLoss="16.67" rerouteNo="1" devices="tripinfo_85 routing_85 emissions_85" vType="thesis_car" speedFactor="0.98" vaporized="">
        <emissions CO_abs="4334.90" CO2_abs="200783.08" HC_abs="24.34" PMx_abs="3.68" NOx_abs="83.43" fuel_abs="64041.17" electricity_abs="0.00"/>
    </tripinfo>
    <tripinfo id="80" depart="60.00" departLane="-28539575#1_0" departPos="4.60" departSpeed="0.00" departDelay="0.00" arrival="137.00" arrivalLane="800671112#12_0" arrivalPos="105.93" arrivalSpeed="13.16" duration="77.00" routeLength="829.14" waitingTime="0.00" waitingCount="0" stopTime="0.00" timeLoss="15.58" rerouteNo="1" devices="tripinfo_80 routing_80 emissions_80" vType="thesis_car" speedFactor="1.03" vaporized="">
        <emissions CO_abs="3856.46" CO2_abs="263460.97" HC_abs="23.54" PMx_abs="4.57" NOx_abs="106.67" fuel_abs="84031.92" electricity_abs="0.00"/>
    </tripinfo>
    <tripinfo id="149" depart="112.00" departLane="28553592_0" departPos="4.60" departSpeed="0.00" departDelay="0.25" arrival="140.00" arrivalLane="-28553639#0_0" arrivalPos="78.55" arrivalSpeed="13.73" duration="28.00" routeLength="267.41" waitingTime="0.00" waitingCount="0" stopTime="0.00" timeLoss="7.85" rerouteNo="1" devices="tripinfo_149 routing_149 emissions_149" vType="thesis_car" speedFactor="1.04" vaporized="">
        <emissions CO_abs="1914.26" CO2_abs="115488.79" HC_abs="11.43" PMx_abs="2.14" NOx_abs="48.02" fuel_abs="36835.58" electricity_abs="0.00"/>
    </tripinfo>
    <tripinfo id="96" depart="72.00" departLane="561395730#1_0" departPos="4.60" departSpeed="0.00" departDelay="0.00" arrival="141.00" arrivalLane="28996500#2_0" arrivalPos="77.46" arrivalSpeed="13.23" duration="69.00" routeLength="436.00" waitingTime="0.00" waitingCount="0" stopTime="0.00" timeLoss="9.63" rerouteNo="1" devices="tripinfo_96 routing_96 emissions_96" vType="thesis_car" speedFactor="1.01" vaporized="">
        <emissions CO_abs="3776.81" CO2_abs="150037.13" HC_abs="20.46" PMx_abs="2.37" NOx_abs="59.93" fuel_abs="47856.14" electricity_abs="0.00"/>
    </tripinfo>
    <tripinfo id="49" depart="37.00" departLane="-586361756#1_0" departPos="4.60" departSpeed="0.00" departDelay="0.25" arrival="142.00" arrivalLane="-1354862882_0" arrivalPos="31.71" arrivalSpeed="4.52" duration="105.00" routeLength="1424.33" waitingTime="0.00" waitingCount="0" stopTime="0.00" timeLoss="18.19" rerouteNo="1" devices="tripinfo_49 routing_49 emissions_49" vType="thesis_car" speedFactor="0.85" vaporized="">
        <emissions CO_abs="5920.06" CO2_abs="389178.10" HC_abs="35.95" PMx_abs="7.30" NOx_abs="155.39" fuel_abs="124129.81" electricity_abs="0.00"/>
    </tripinfo>
    <tripinfo id="64" depart="48.00" departLane="1427235911_0" departPos="4.60" departSpeed="0.00" departDelay="0.00" arrival="142.00" arrivalLane="354718299#1_0" arrivalPos="64.46" arrivalSpeed="12.89" duration="94.00" routeLength="1138.82" waitingTime="6.00" waitingCount="1" stopTime="0.00" timeLoss="28.72" rerouteNo="1" devices="tripinfo_64 routing_64 emissions_64" vType="thesis_car" speedFactor="0.94" vaporized="">
        <emissions CO_abs="7046.73" CO2_abs="405561.45" HC_abs="41.54" PMx_abs="7.97" NOx_abs="166.36" fuel_abs="129355.36" electricity_abs="0.00"/>
    </tripinfo>
    <tripinfo id="73" depart="55.00" departLane="-354718285_0" departPos="4.60" departSpeed="0.00" departDelay="0.25" arrival="145.00" arrivalLane="354718299#1_0" arrivalPos="64.46" arrivalSpeed="13.48" duration="90.00" routeLength="977.53" waitingTime="0.00" waitingCount="0" stopTime="0.00" timeLoss="19.98" rerouteNo="1" devices="tripinfo_73 routing_73 emissions_73" vType="thesis_car" speedFactor="1.06" vaporized="">
        <emissions CO_abs="4500.32" CO2_abs="301754.43" HC_abs="27.25" PMx_abs="5.13" NOx_abs="120.93" fuel_abs="96245.96" electricity_abs="0.00"/>
    </tripinfo>
    <tripinfo id="152" depart="114.00" departLane="622155128#0_0" departPos="4.60" departSpeed="0.00" departDelay="0.00" arrival="145.00" arrivalLane="-1427235911_0" arrivalPos="57.33" arrivalSpeed="13.61" duration="31.00" routeLength="408.60" waitingTime="0.00" waitingCount="0" stopTime="0.00" timeLoss="13.56" rerouteNo="1" devices="tripinfo_152 routing_152 emissions_152" vType="thesis_car" speedFactor="1.07" vaporized="">
        <emissions CO_abs="3407.86" CO2_abs="196795.90" HC_abs="20.26" PMx_abs="4.22" NOx_abs="84.12" fuel_abs="62768.34" electricity_abs="0.00"/>
    </tripinfo>
    <tripinfo id="162" depart="122.00" departLane="28995221_0" departPos="4.60" departSpeed="0.00" departDelay="0.50" arrival="147.00" arrivalLane="1302514926_0" arrivalPos="45.95" arrivalSpeed="12.56" duration="25.00" routeLength="229.93" waitingTime="0.00" waitingCount="0" stopTime="0.00" timeLoss="7.14" rerouteNo="1" devices="tripinfo_162 routing_162 emissions_162" vType="thesis_car" speedFactor="0.99" vaporized="">
        <emissions CO_abs="1982.37" CO2_abs="107569.90" HC_abs="11.55" PMx_abs="2.11" NOx_abs="45.63" fuel_abs="34309.80" electricity_abs="0.00"/>
    </tripinfo>
    <tripinfo id="130" depart="98.00" departLane="-23296751#2_0" departPos="4.60" departSpeed="0.00" departDelay="0.50" arrival="149.00" arrivalLane="1064374314#1_0" arrivalPos="38.86" arrivalSpeed="13.30" duration="51.00" routeLength="528.54" waitingTime="0.00" waitingCount="0" stopTime="0.00" timeLoss="9.41" rerouteNo="1" devices="tripinfo_130 routing_130 emissions_130" vType="thesis_car" speedFactor="1.03" vaporized="">
        <emissions CO_abs="2733.73" CO2_abs="168284.60" HC_abs="16.25" PMx_abs="2.99" NOx_abs="68.86" fuel_abs="53675.11" electricity_abs="0.00"/>
    </tripinfo>
    <tripinfo id="11" depart="9.00" departLane="428836643#1_0" departPos="4.60" departSpeed="0.00" departDelay="0.75" arrival="152.00" arrivalLane="28996951_0" arrivalPos="30.72" arrivalSpeed="11.69" duration="143.00" routeLength="1796.32" waitingTime="2.00" waitingCount="1" stopTime="0.00" timeLoss="31.12" rerouteNo="1" devices="tripinfo_11 routing_11 emissions_11" vType="thesis_car" speedFactor="1.03" vaporized="">
        <emissions CO_abs="9494.37" CO2_abs="549062.73" HC_abs="56.26" PMx_abs="10.76" NOx_abs="222.10" fuel_abs="175125.93" electricity_abs="0.00"/>
    </tripinfo>
    <tripinfo id="169" depart="127.00" departLane="-354718299#1_0" departPos="4.60" departSpeed="0.00" departDelay="0.25" arrival="154.00" arrivalLane="-354718298_0" arrivalPos="116.52" arrivalSpeed="11.78" duration="27.00" routeLength="190.48" waitingTime="2.00" waitingCount="1" stopTime="0.00" timeLoss="11.04" rerouteNo="0" devices="tripinfo_169 routing_169 emissions_169" vType="thesis_car" speedFactor="0.94" vaporized="">
        <emissions CO_abs="2234.30" CO2_abs="96753.51" HC_abs="12.40" PMx_abs="1.79" NOx_abs="40.25" fuel_abs="30860.29" electricity_abs="0.00"/>
    </tripinfo>
    <tripinfo id="33" depart="25.00" departLane="-23296751#2_0" departPos="4.60" departSpeed="0.00" departDelay="0.25" arrival="156.00" arrivalLane="27494654_0" arrivalPos="1.88" arrivalSpeed="12.14" duration="131.00" routeLength="1436.33" waitingTime="0.00" waitingCount="0" stopTime="0.00" timeLoss="24.89" rerouteNo="1" devices="tripinfo_33 routing_33 emissions_33" vType="thesis_car" speedFactor="1.17" vaporized="">
        <emissions CO_abs="6924.73" CO2_abs="480322.18" HC_abs="42.64" PMx_abs="8.37" NOx_abs="194.96" fuel_abs="153200.57" electricity_abs="0.00"/>
    </tripinfo>
    <tripinfo id="70" depart="53.00" departLane="1272650816_0" departPos="4.60" departSpeed="0.00" departDelay="0.50" arrival="156.00" arrivalLane="-28996500#0_0" arrivalPos="63.26" arrivalSpeed="13.44" duration="103.00" routeLength="1008.07" waitingTime="0.00" waitingCount="0" stopTime="0.00" timeLoss="22.85" rerouteNo="1" devices="tripinfo_70 routing_70 emissions_70" vType="thesis_car" speedFactor="1.02" vaporized="">
        <emissions CO_abs="5819.59" CO2_abs="356552.30" HC_abs="34.82" PMx_abs="6.51" NOx_abs="147.58" fuel_abs="113723.73" electricity_abs="0.00"/>
    </tripinfo>
    <tripinfo id="53" depart="40.00" departLane="1436005548_1" departPos="4.60" departSpeed="0.00" departDelay="0.25" arrival="158.00" arrivalLane="184736575#1_0" arrivalPos="30.04" arrivalSpeed="12.76" duration="118.00" routeLength="1949.56" waitingTime="0.00" waitingCount="0" stopTime="0.00" timeLoss="28.89" rerouteNo="1" devices="tripinfo_53 routing_53 emissions_53" vType="thesis_car" speedFactor="1.10" vaporized="">
        <emissions CO_abs="10744.69" CO2_abs="665352.20" HC_abs="65.04" PMx_abs="14.27" NOx_abs="278.08" fuel_abs="212215.01" electricity_abs="0.00"/>
    </tripinfo>
    <tripinfo id="141" depart="106.00" departLane="-586354143_0" departPos="4.60" departSpeed="0.00" departDelay="0.25" arrival="161.00" arrivalLane="184736575#1_0" arrivalPos="30.04" arrivalSpeed="11.95" duration="55.00" routeLength="643.14" waitingTime="0.00" waitingCount="0" stopTime="0.00" timeLoss="13.32" rerouteNo="1" devices="tripinfo_141 routing_141 emissions_141" vType="thesis_car" speedFactor="1.16" vaporized="">
        <emissions CO_abs="3048.63" CO2_abs="200943.89" HC_abs="18.39" PMx_abs="3.63" NOx_abs="81.65" fuel_abs="64091.76" electricity_abs="0.00"/>
    </tripinfo>
    <tripinfo id="103" depart="78.00" departLane="586354144#0_0" departPos="4.60" departSpeed="0.00" departDelay="0.75" arrival="166.00" arrivalLane="-183689239#0_0" arrivalPos="9.45" arrivalSpeed="12.10" duration="88.00" routeLength="854.25" waitingTime="0.00" waitingCount="0" stopTime="0.00" timeLoss="18.72" rerouteNo="1" devices="tripinfo_103 routing_103 emissions_103" vType="thesis_car" speedFactor="0.95" vaporized="">
        <emissions CO_abs="4516.55" CO2_abs="280738.88" HC_abs="26.94" PMx_abs="4.75" NOx_abs="113.39" fuel_abs="89543.15" electricity_abs="0.00"/>
    </tripinfo>
    <tripinfo id="66" depart="50.00" departLane="-226831895#1_0" departPos="4.60" departSpeed="0.00" departDelay="0.50" arrival="171.00" arrivalLane="1064374314#1_0" arrivalPos="38.86" arrivalSpeed="12.10" duration="121.00" routeLength="938.26" waitingTime="0.00" waitingCount="0" stopTime="0.00" timeLoss="14.80" rerouteNo="1" devices="tripinfo_66 routing_66 emissions_66" vType="thesis_car" speedFactor="0.91" vaporized="">
        <emissions CO_abs="5501.73" CO2_abs="274407.45" HC_abs="31.27" PMx_abs="4.25" NOx_abs="109.52" fuel_abs="87524.77" electricity_abs="0.00"/>
    </tripinfo>
    <tripinfo id="154" depart="119.00" departLane="183688028#9_0" departPos="4.60" departSpeed="0.00" departDelay="3.50" arrival="174.00" arrivalLane="-28554097#0_0" arrivalPos="41.86" arrivalSpeed="13.86" duration="55.00" routeLength="566.34" waitingTime="0.00" waitingCount="0" stopTime="0.00" timeLoss="14.42" rerouteNo="1" devices="tripinfo_154 routing_154 emissions_154" vType="thesis_car" speedFactor="1.06" vaporized="">
        <emissions CO_abs="3312.66" CO2_abs="204409.42" HC_abs="19.70" PMx_abs="3.72" NOx_abs="83.97" fuel_abs="65197.18" electricity_abs="0.00"/>
    </tripinfo>
    <tripinfo id="188" depart="142.00" departLane="987633851_0" departPos="4.60" departSpeed="0.00" departDelay="1.00" arrival="176.00" arrivalLane="-586354144#0_0" arrivalPos="11.05" arrivalSpeed="8.27" duration="34.00" routeLength="321.80" waitingTime="0.00" waitingCount="0" stopTime="0.00" timeLoss="7.77" rerouteNo="1" devices="tripinfo_188 routing_188 emissions_188" vType="thesis_car" speedFactor="0.97" vaporized="">
        <emissions CO_abs="1903.81" CO2_abs="110077.49" HC_abs="11.18" PMx_abs="1.99" NOx_abs="45.43" fuel_abs="35109.72" electricity_abs="0.00"/>
    </tripinfo>
    <tripinfo id="150" depart="113.00" departLane="-28995853#1_0" departPos="4.60" departSpeed="0.00" departDelay="0.50" arrival="185.00" arrivalLane="-1072176585_0" arrivalPos="24.93" arrivalSpeed="11.20" duration="72.00" routeLength="668.12" waitingTime="0.00" waitingCount="0" stopTime="0.00" timeLoss="18.11" rerouteNo="1" devices="tripinfo_150 routing_150 emissions_150" vType="thesis_car" speedFactor="0.96" vaporized="">
        <emissions CO_abs="4339.27" CO2_abs="251623.21" HC_abs="25.66" PMx_abs="4.63" NOx_abs="104.66" fuel_abs="80256.28" electricity_abs="0.00"/>
    </tripinfo>
    <tripinfo id="223" depart="168.00" departLane="174398012#1_0" departPos="0.20" departSpeed="0.00" departDelay="0.75" arrival="185.00" arrivalLane="28996944_0" arrivalPos="114.98" arrivalSpeed="13.59" duration="17.00" routeLength="158.62" waitingTime="0.00" waitingCount="0" stopTime="0.00" timeLoss="4.99" rerouteNo="1" devices="tripinfo_223 routing_223 emissions_223" vType="thesis_car" speedFactor="1.06" vaporized="">
        <emissions CO_abs="1336.79" CO2_abs="71929.73" HC_abs="7.75" PMx_abs="1.35" NOx_abs="29.94" fuel_abs="22942.33" electricity_abs="0.00"/>
    </tripinfo>
    <tripinfo id="44" depart="33.00" departLane="-586354143_0" departPos="4.60" departSpeed="0.00" departDelay="0.00" arrival="186.00" arrivalLane="28537229#1_0" arrivalPos="107.39" arrivalSpeed="13.96" duration="153.00" routeLength="1669.48" waitingTime="23.00" waitingCount="1" stopTime="0.00" timeLoss="54.58" rerouteNo="1" devices="tripinfo_44 routing_44 emissions_44" vType="thesis_car" speedFactor="1.04" vaporized="">
        <emissions CO_abs="12235.55" CO2_abs="599094.38" HC_abs="69.90" PMx_abs="11.97" NOx_abs="246.88" fuel_abs="191084.44" electricity_abs="0.00"/>
    </tripinfo>
    <tripinfo id="148" depart="111.00" departLane="491608507_0" departPos="4.60" departSpeed="0.00" departDelay="0.00" arrival="190.00" arrivalLane="29000484#1_0" arrivalPos="103.75" arrivalSpeed="13.13" duration="79.00" routeLength="665.64" waitingTime="0.00" waitingCount="0" stopTime="0.00" timeLoss="17.12" rerouteNo="1" devices="tripinfo_148 routing_148 emissions_148" vType="thesis_car" speedFactor="0.97" vaporized="">
        <emissions CO_abs="4567.94" CO2_abs="249714.93" HC_abs="26.63" PMx_abs="4.54" NOx_abs="103.75" fuel_abs="79647.84" electricity_abs="0.00"/>
    </tripinfo>
    <tripinfo id="170" depart="128.00" departLane="23296744#0_0" departPos="4.60" departSpeed="0.00" departDelay="0.50" arrival="194.00" arrivalLane="-23296749_0" arrivalPos="87.78" arrivalSpeed="14.84" duration="66.00" routeLength="559.26" waitingTime="1.00" waitingCount="1" stopTime="0.00" timeLoss="23.27" rerouteNo="1" devices="tripinfo_170 routing_170 emissions_170" vType="thesis_car" speedFactor="1.09" vaporized="">
        <emissions CO_abs="5081.17" CO2_abs="255960.38" HC_abs="29.11" PMx_abs="4.93" NOx_abs="107.98" fuel_abs="81639.80" electricity_abs="0.00"/>
    </tripinfo>
    <tripinfo id="16" depart="12.00" departLane="-174398025#0_1" departPos="4.60" departSpeed="0.00" departDelay="0.00" arrival="196.00" arrivalLane="-28553756_0" arrivalPos="75.90" arrivalSpeed="11.12" duration="184.00" routeLength="2253.08" waitingTime="6.00" waitingCount="1" stopTime="0.00" timeLoss="43.13" rerouteNo="1" devices="tripinfo_16 routing_16 emissions_16" vType="thesis_car" speedFactor="0.88" vaporized="">
        <emissions CO_abs="10838.42" CO2_abs="692326.06" HC_abs="65.25" PMx_abs="12.78" NOx_abs="277.84" fuel_abs="220820.26" electricity_abs="0.00"/>
    </tripinfo>
    <tripinfo id="75" depart="57.00" departLane="842050932_0" departPos="4.60" departSpeed="0.00" departDelay="0.75" arrival="197.00" arrivalLane="96487801#3_0" arrivalPos="9.40" arrivalSpeed="8.02" duration="140.00" routeLength="1179.63" waitingTime="27.00" waitingCount="2" stopTime="0.00" timeLoss="61.23" rerouteNo="1" devices="tripinfo_75 routing_75 emissions_75" vType="thesis_car" speedFactor="0.98" vaporized="">
        <emissions CO_abs="12329.78" CO2_abs="522396.43" HC_abs="68.34" PMx_abs="10.42" NOx_abs="219.93" fuel_abs="166621.89" electricity_abs="0.00"/>
    </tripinfo>
    <tripinfo id="126" depart="95.00" departLane="894940513_0" departPos="4.60" departSpeed="0.00" departDelay="0.50" arrival="197.00" arrivalLane="-28996500#0_0" arrivalPos="63.26" arrivalSpeed="13.37" duration="102.00" routeLength="944.30" waitingTime="0.00" waitingCount="0" stopTime="0.00" timeLoss="24.94" rerouteNo="1" devices="tripinfo_126 routing_126 emissions_126" vType="thesis_car" speedFactor="1.03" vaporized="">
        <emissions CO_abs="5640.99" CO2_abs="331707.16" HC_abs="33.41" PMx_abs="6.11" NOx_abs="137.64" fuel_abs="105799.36" electricity_abs="0.00"/>
    </tripinfo>
    <tripinfo id="194" depart="146.00" departLane="4940249#3_1" departPos="0.20" departSpeed="0.00" departDelay="0.50" arrival="197.00" arrivalLane="814837405#0_0" arrivalPos="4.37" arrivalSpeed="10.79" duration="51.00" routeLength="415.98" waitingTime="0.00" waitingCount="0" stopTime="0.00" timeLoss="12.67" rerouteNo="1" devices="tripinfo_194 routing_194 emissions_194" vType="thesis_car" speedFactor="1.00" vaporized="">
        <emissions CO_abs="3022.64" CO2_abs="161698.39" HC_abs="17.54" PMx_abs="2.85" NOx_abs="66.69" fuel_abs="51574.66" electricity_abs="0.00"/>
    </tripinfo>
    <tripinfo id="106" depart="80.00" departLane="28996820#0_0" departPos="4.60" departSpeed="0.00" departDelay="0.50" arrival="199.00" arrivalLane="184852741#1_0" arrivalPos="46.05" arrivalSpeed="13.22" duration="119.00" routeLength="1097.47" waitingTime="31.00" waitingCount="3" stopTime="0.00" timeLoss="57.77" rerouteNo="1" devices="tripinfo_106 routing_106 emissions_106" vType="thesis_car" speedFactor="1.01" vaporized="">
        <emissions CO_abs="11491.29" CO2_abs="469198.42" HC_abs="63.22" PMx_abs="9.56" NOx_abs="196.77" fuel_abs="149654.17" electricity_abs="0.00"/>
    </tripinfo>
    <tripinfo id="157" depart="118.00" departLane="-23296749_0" departPos="4.60" departSpeed="0.00" departDelay="0.25" arrival="201.00" arrivalLane="1008051258#5_0" arrivalPos="27.04" arrivalSpeed="12.91" duration="83.00" routeLength="848.24" waitingTime="0.00" waitingCount="0" stopTime="0.00" timeLoss="16.85" rerouteNo="1" devices="tripinfo_157 routing_157 emissions_157" vType="thesis_car" speedFactor="1.08" vaporized="">
        <emissions CO_abs="4643.76" CO2_abs="296884.95" HC_abs="28.03" PMx_abs="5.21" NOx_abs="121.22" fuel_abs="94692.72" electricity_abs="0.00"/>
    </tripinfo>