<?xml version="1.0" encoding="UTF-8"?>

<!-- generated on 2026-02-06T17:33:00.655677+08:00 by Eclipse SUMO GUI 1.25.0
<sumoConfiguration xmlns:xsi="http://www.w3.org/2001/XMLSchema-instance" xsi:noNamespaceSchemaLocation="http://sumo.dlr.de/xsd/sumoConfiguration.xsd">

    <input>
        <net-file value="c:\Users\otaku\Documents\Thesis\apriori_civiq\scenarios/bgc_full/final_map.net.xml"/>
        <route-files value="c:\Users\otaku\Documents\Thesis\apriori_civiq\scenarios/bgc_full/trips_low.xml"/>
        <additional-files value="c:\Users\otaku\Documents\Thesis\apriori_civiq\scenarios/bgc_full/osm.poly.xml.gz,c:\Users\otaku\Documents\Thesis\apriori_civiq\scenarios/bgc_full/output.add.xml,c:\Users\otaku\Documents\Thesis\apriori_civiq\scenarios/bgc_full/vtypes.add.xml"/>
    </input>

    <output>
        <summary-output value="c:\Users\otaku\Documents\Thesis\apriori_civiq\scenarios/bgc_full/data\data_selfish_low_summary.xml"/>
        <tripinfo-output value="c:\Users\otaku\Documents\Thesis\apriori_civiq\scenarios/bgc_full/data\data_selfish_low_tripinfo.xml"/>
        <statistic-output value="c:\Users\otaku\Documents\Thesis\apriori_civiq\scenarios/bgc_full/data\data_selfish_low_stats.xml"/>
    </output>

    <time>
        <step-length value="1.0"/>
    </time>

    <processing>
        <ignore-route-errors value="true"/>
        <time-to-teleport value="-1"/>
        <tls.actuated.jam-threshold value="30"/>
    </processing>

    <routing>
        <device.rerouting.adaptation-steps value="18"/>
        <device.rerouting.adaptation-interval value="10"/>
    </routing>

    <report>
        <verbose value="true"/>
        <duration-log.statistics value="true"/>
        <no-step-log value="true"/>
    </report>

    <emissions>
        <device.emissions.probability value="1.0"/>
    </emissions>

    <traci_server>
        <remote-port value="55930"/>
    </traci_server>

    <gui_only>
        <gui-settings-file value="c:\Users\otaku\Documents\Thesis\apriori_civiq\scenarios/bgc_full/osm.view.xml"/>
        <start value="true"/>
    </gui_only>

</sumoConfiguration>
-->

<tripinfos xmlns:xsi="http://www.w3.org/2001/XMLSchema-instance" xsi:noNamespaceSchemaLocation="http://sumo.dlr.de/xsd/tripinfo_file.xsd">
    <tripinfo id="3" depart="6.00" departLane="1292171266_0" departPos="4.60" departSpeed="0.00" departDelay="0.00" arrival="51.00" arrivalLane="-1278655004_0" arrivalPos="32.61" arrivalSpeed="5.56" duration="45.00" routeLength="260.60" waitingTime="0.00" waitingCount="0" stopTime="0.00" timeLoss="6.04" rerouteNo="1" devices="tripinfo_3 routing_3 emissions_3" vType="thesis_car" speedFactor="1.08" vaporized="">
        <emissions CO_abs="2472.96" CO2_abs="91970.15" HC_abs="13.34" PMx_abs="1.41" NOx_abs="36.93" fuel_abs="29335.11" electricity_abs="0.00"/>
    </tripinfo>
    <tripinfo id="6" depart="12.00" departLane="-28996992#3_0" departPos="4.60" departSpeed="0.00" departDelay="0.00" arrival="80.00" arrivalLane="23370447_0" arrivalPos="236.11" arrivalSpeed="11.15" duration="68.00" routeLength="723.01" waitingTime="0.00" waitingCount="0" stopTime="0.00" timeLoss="14.45" rerouteNo="1" devices="tripinfo_6 routing_6 emissions_6" vType="thesis_car" speedFactor="1.05" vaporized="">
        <emissions CO_abs="3174.79" CO2_abs="208877.89" HC_abs="19.08" PMx_abs="3.49" NOx_abs="83.06" fuel_abs="66622.65" electricity_abs="0.00"/>
    </tripinfo>
    <tripinfo id="26" depart="52.00" departLane="-28997018#3_0" departPos="4.60" departSpeed="0.00" departDelay="0.00" arrival="88.00" arrivalLane="-1278655004_0" arrivalPos="32.61" arrivalSpeed="4.97" duration="36.00" routeLength="279.63" waitingTime="0.00" waitingCount="0" stopTime="0.00" timeLoss="7.74" rerouteNo="1" devices="tripinfo_26 routing_26 emissions_26" vType="thesis_car" speedFactor="0.92" vaporized="">
        <emissions CO_abs="2223.77" CO2_abs="109216.67" HC_abs="12.65" PMx_abs="1.99" NOx_abs="45.45" fuel_abs="34835.34" electricity_abs="0.00"/>
    </tripinfo>
    <tripinfo id="41" depart="82.00" departLane="28553756_0" departPos="4.60" departSpeed="0.00" departDelay="0.00" arrival="111.00" arrivalLane="184736575#1_0" arrivalPos="30.04" arrivalSpeed="10.81" duration="29.00" routeLength="250.11" waitingTime="0.00" waitingCount="0" stopTime="0.00" timeLoss="8.57" rerouteNo="1" devices="tripinfo_41 routing_41 emissions_41" vType="thesis_car" speedFactor="0.96" vaporized="">
        <emissions CO_abs="2187.85" CO2_abs="115201.12" HC_abs="12.69" PMx_abs="2.24" NOx_abs="48.93" fuel_abs="36743.86" electricity_abs="0.00"/>
    </tripinfo>
    <tripinfo id="16" depart="32.00" departLane="-28997018#3_0" departPos="4.60" departSpeed="0.00" departDelay="0.00" arrival="115.00" arrivalLane="-28996932#2_0" arrivalPos="24.69" arrivalSpeed="11.24" duration="83.00" routeLength="616.77" waitingTime="0.00" waitingCount="0" stopTime="0.00" timeLoss="15.34" rerouteNo="1" devices="tripinfo_16 routing_16 emissions_16" vType="thesis_car" speedFactor="0.88" vaporized="">
        <emissions CO_abs="4841.56" CO2_abs="221735.03" HC_abs="27.17" PMx_abs="3.91" NOx_abs="91.49" fuel_abs="70724.14" electricity_abs="0.00"/>
    </tripinfo>
    <tripinfo id="10" depart="20.00" departLane="622155128#0_0" departPos="4.60" departSpeed="0.00" departDelay="0.00" arrival="116.00" arrivalLane="27274182#0_0" arrivalPos="88.74" arrivalSpeed="4.89" duration="96.00" routeLength="1064.06" waitingTime="17.00" waitingCount="2" stopTime="0.00" timeLoss="46.83" rerouteNo="1" devices="tripinfo_10 routing_10 emissions_10" vType="thesis_car" speedFactor="1.09" vaporized="">
        <emissions CO_abs="11317.16" CO2_abs="480230.32" HC_abs="63.23" PMx_abs="10.79" NOx_abs="205.89" fuel_abs="153171.71" electricity_abs="0.00"/>
    </tripinfo>
    <tripinfo id="17" depart="34.00" departLane="-23296775_0" departPos="4.60" departSpeed="0.00" departDelay="0.00" arrival="127.00" arrivalLane="-28996500#0_0" arrivalPos="63.26" arrivalSpeed="12.94" duration="93.00" routeLength="499.90" waitingTime="0.00" waitingCount="0" stopTime="0.00" timeLoss="13.34" rerouteNo="1" devices="tripinfo_17 routing_17 emissions_17" vType="thesis_car" speedFactor="0.94" vaporized="">
        <emissions CO_abs="5191.19" CO2_abs="181119.40" HC_abs="27.77" PMx_abs="3.03" NOx_abs="74.24" fuel_abs="57770.39" electricity_abs="0.00"/>
    </tripinfo>
    <tripinfo id="43" depart="86.00" departLane="-23296780#0_0" departPos="4.60" departSpeed="0.00" departDelay="0.00" arrival="142.00" arrivalLane="101476581_0" arrivalPos="7.35" arrivalSpeed="13.40" duration="56.00" routeLength="565.23" waitingTime="0.00" waitingCount="0" stopTime="0.00" timeLoss="11.92" rerouteNo="1" devices="tripinfo_43 routing_43 emissions_43" vType="thesis_car" speedFactor="1.04" vaporized="">
        <emissions CO_abs="2851.92" CO2_abs="179679.81" HC_abs="17.01" PMx_abs="3.12" NOx_abs="72.81" fuel_abs="57309.71" electricity_abs="0.00"/>
    </tripinfo>
    <tripinfo id="28" depart="56.00" departLane="-28996951_0" departPos="4.60" departSpeed="0.00" departDelay="0.00" arrival="160.00" arrivalLane="747953561_1" arrivalPos="15.83" arrivalSpeed="23.53" duration="104.00" routeLength="1237.20" waitingTime="0.00" waitingCount="0" stopTime="0.00" timeLoss="28.70" rerouteNo="1" devices="tripinfo_28 routing_28 emissions_28" vType="thesis_car" speedFactor="1.13" vaporized="">
        <emissions CO_abs="9074.82" CO2_abs="522909.55" HC_abs="53.83" PMx_abs="10.76" NOx_abs="219.75" fuel_abs="166783.31" electricity_abs="0.00"/>
    </tripinfo>
    <tripinfo id="14" depart="28.00" departLane="561395729#0_0" departPos="4.60" departSpeed="0.00" departDelay="0.00" arrival="172.00" arrivalLane="27494654_0" arrivalPos="1.88" arrivalSpeed="10.89" duration="144.00" routeLength="1331.10" waitingTime="0.00" waitingCount="0" stopTime="0.00" timeLoss="22.08" rerouteNo="1" devices="tripinfo_14 routing_14 emissions_14" vType="thesis_car" speedFactor="0.99" vaporized="">
        <emissions CO_abs="6472.84" CO2_abs="403298.46" HC_abs="38.66" PMx_abs="6.39" NOx_abs="160.52" fuel_abs="128634.64" electricity_abs="0.00"/>
    </tripinfo>
    <tripinfo id="79" depart="158.00" departLane="184731538_0" departPos="4.60" departSpeed="0.00" departDelay="0.00" arrival="190.00" arrivalLane="-28553629_0" arrivalPos="86.21" arrivalSpeed="14.43" duration="32.00" routeLength="276.30" waitingTime="0.00" waitingCount="0" stopTime="0.00" timeLoss="11.87" rerouteNo="1" devices="tripinfo_79 routing_79 emissions_79" vType="thesis_car" speedFactor="1.09" vaporized="">
        <emissions CO_abs="2415.79" CO2_abs="133376.49" HC_abs="14.16" PMx_abs="2.58" NOx_abs="56.28" fuel_abs="42540.93" electricity_abs="0.00"/>
    </tripinfo>
    <tripinfo id="12" depart="24.00" departLane="23296750_0" departPos="4.60" departSpeed="0.00" departDelay="0.00" arrival="203.00" arrivalLane="896483082#1_0" arrivalPos="7.37" arrivalSpeed="11.52" duration="179.00" routeLength="2245.79" waitingTime="18.00" waitingCount="1" stopTime="0.00" timeLoss="62.50" rerouteNo="1" devices="tripinfo_12 routing_12 emissions_12" vType="thesis_car" speedFactor="1.05" vaporized="">
        <emissions CO_abs="15359.38" CO2_abs="852865.28" HC_abs="90.14" PMx_abs="17.42" NOx_abs="354.39" fuel_abs="272024.20" electricity_abs="0.00"/>
    </tripinfo>
    <tripinfo id="70" depart="140.00" departLane="-23296773#1_0" departPos="4.60" departSpeed="0.00" departDelay="0.00" arrival="207.00" arrivalLane="101476581_0" arrivalPos="7.35" arrivalSpeed="13.69" duration="67.00" routeLength="705.59" waitingTime="0.00" waitingCount="0" stopTime="0.00" timeLoss="10.10" rerouteNo="1" devices="tripinfo_70 routing_70 emissions_70" vType="thesis_car" speedFactor="1.02" vaporized="">
        <emissions CO_abs="3045.42" CO2_abs="208303.44" HC_abs="18.59" PMx_abs="3.47" NOx_abs="83.36" fuel_abs="66439.37" electricity_abs="0.00"/>
    </tripinfo>
    <tripinfo id="36" depart="72.00" departLane="984799393_0" departPos="4.60" departSpeed="0.00" departDelay="0.00" arrival="210.00" arrivalLane="1382245206#8_1" arrivalPos="26.14" arrivalSpeed="7.26" duration="138.00" routeLength="859.05" waitingTime="35.00" waitingCount="2" stopTime="0.00" timeLoss="55.19" rerouteNo="1" devices="tripinfo_36 routing_36 emissions_36" vType="thesis_car" speedFactor="0.97" vaporized="">
        <emissions CO_abs="10656.93" CO2_abs="351786.17" HC_abs="56.60" PMx_abs="6.64" NOx_abs="147.46" fuel_abs="112206.39" electricity_abs="0.00"/>
    </tripinfo>
    <tripinfo id="93" depart="186.00" departLane="-28996944_0" departPos="4.60" departSpeed="0.00" departDelay="0.00" arrival="212.00" arrivalLane="28996944_0" arrivalPos="114.98" arrivalSpeed="12.25" duration="26.00" routeLength="230.04" waitingTime="0.00" waitingCount="0" stopTime="0.00" timeLoss="7.27" rerouteNo="0" devices="tripinfo_93 routing_93 emissions_93" vType="thesis_car" speedFactor="0.92" vaporized="">
        <emissions CO_abs="1786.00" CO2_abs="94265.04" HC_abs="10.35" PMx_abs="1.78" NOx_abs="39.55" fuel_abs="30066.28" electricity_abs="0.00"/>
    </tripinfo>
    <tripinfo id="2" depart="4.00" departLane="745055616#1_0" departPos="4.60" departSpeed="0.00" departDelay="0.00" arrival="220.00" arrivalLane="-183689239#0_0" arrivalPos="9.45" arrivalSpeed="13.62" duration="216.00" routeLength="3069.37" waitingTime="3.00" waitingCount="1" stopTime="0.00" timeLoss="51.21" rerouteNo="1" devices="tripinfo_2 routing_2 emissions_2" vType="thesis_car" speedFactor="1.01" vaporized="">
        <emissions CO_abs="15161.42" CO2_abs="989400.58" HC_abs="92.67" PMx_abs="19.66" NOx_abs="401.57" fuel_abs="315572.08" electricity_abs="0.00"/>
    </tripinfo>
    <tripinfo id="4" depart="8.00" departLane="-28996987#4_0" departPos="4.60" departSpeed="0.00" departDelay="0.00" arrival="225.00" arrivalLane="1362795132#4_0" arrivalPos="0.20" arrivalSpeed="8.30" duration="217.00" routeLength="2433.24" waitingTime="16.00" waitingCount="2" stopTime="0.00" timeLoss="78.17" rerouteNo="1" devices="tripinfo_4 routing_4 emissions_4" vType="thesis_car" speedFactor="1.03" vaporized="">
        <emissions CO_abs="17833.02" CO2_abs="947950.59" HC_abs="103.50" PMx_abs="19.08" NOx_abs="395.42" fuel_abs="302352.53" electricity_abs="0.00"/>
    </tripinfo>
    <tripinfo id="21" depart="42.00" departLane="28553544#0_0" departPos="4.60" departSpeed="0.00" departDelay="0.00" arrival="228.00" arrivalLane="27274186_0" arrivalPos="14.23" arrivalSpeed="10.84" duration="186.00" routeLength="2576.94" waitingTime="5.00" waitingCount="1" stopTime="0.00" timeLoss="47.70" rerouteNo="1" devices="tripinfo_21 routing_21 emissions_21" vType="thesis_car" speedFactor="1.01" vaporized="">
        <emissions CO_abs="14275.47" CO2_abs="878076.23" HC_abs="86.05" PMx_abs="17.82" NOx_abs="359.79" fuel_abs="280064.90" electricity_abs="0.00"/>
    </tripinfo>
    <tripinfo id="50" depart="100.00" departLane="33423429_0" departPos="4.60" departSpeed="0.00" departDelay="0.00" arrival="230.00" arrivalLane="174398025#2_1" arrivalPos="24.02" arrivalSpeed="22.77" duration="130.00" routeLength="1499.05" waitingTime="4.00" waitingCount="1" stopTime="0.00" timeLoss="26.77" rerouteNo="1" devices="tripinfo_50 routing_50 emissions_50" vType="thesis_car" speedFactor="0.85" vaporized="">
        <emissions CO_abs="7310.81" CO2_abs="463145.06" HC_abs="43.97" PMx_abs="8.25" NOx_abs="186.32" fuel_abs="147722.27" electricity_abs="0.00"/>
    </tripinfo>
    <tripinfo id="71" depart="142.00" departLane="1302514929#0_0" departPos="4.60" departSpeed="0.00" departDelay="0.00" arrival="230.00" arrivalLane="126310262_1" arrivalPos="21.28" arrivalSpeed="12.99" duration="88.00" routeLength="980.96" waitingTime="0.00" waitingCount="0" stopTime="0.00" timeLoss="14.29" rerouteNo="1" devices="tripinfo_71 routing_71 emissions_71" vType="thesis_car" speedFactor="0.97" vaporized="">
        <emissions CO_abs="3484.39" CO2_abs="265633.82" HC_abs="21.74" PMx_abs="4.17" NOx_abs="104.15" fuel_abs="84725.23" electricity_abs="0.00"/>
    </tripinfo>
    <tripinfo id="7" depart="14.00" departLane="461823738#0_0" departPos="4.60" departSpeed="0.00" departDelay="0.00" arrival="232.00" arrivalLane="-1064386464_0" arrivalPos="41.34" arrivalSpeed="12.27" duration="218.00" routeLength="2134.79" waitingTime="30.00" waitingCount="2" stopTime="0.00" timeLoss="80.15" rerouteNo="1" devices="tripinfo_7 routing_7 emissions_7" vType="thesis_car" speedFactor="0.89" vaporized="">
        <emissions CO_abs="17904.21" CO2_abs="854648.25" HC_abs="101.87" PMx_abs="17.11" NOx_abs="358.85" fuel_abs="272594.53" electricity_abs="0.00"/>
    </tripinfo>
    <tripinfo id="89" depart="178.00" departLane="-29000484#1_0" departPos="4.60" departSpeed="0.00" departDelay="0.00" arrival="233.00" arrivalLane="-23296745#0_0" arrivalPos="76.79" arrivalSpeed="13.63" duration="55.00" routeLength="579.98" waitingTime="0.00" waitingCount="0" stopTime="0.00" timeLoss="10.99" rerouteNo="1" devices="tripinfo_89 routing_89 emissions_89" vType="thesis_car" speedFactor="1.02" vaporized="">
        <emissions CO_abs="2912.02" CO2_abs="195326.52" HC_abs="17.67" PMx_abs="3.42" NOx_abs="79.27" fuel_abs="62300.16" electricity_abs="0.00"/>
    </tripinfo>
    <tripinfo id="22" depart="44.00" departLane="-28553959#9_0" departPos="4.60" departSpeed="0.00" departDelay="0.00" arrival="237.00" arrivalLane="-747447017#2_1" arrivalPos="14.39" arrivalSpeed="12.37" duration="193.00" routeLength="1740.95" waitingTime="53.00" waitingCount="4" stopTime="0.00" timeLoss="101.75" rerouteNo="1" devices="tripinfo_22 routing_22 emissions_22" vType="thesis_car" speedFactor="0.97" vaporized="">
        <emissions CO_abs="19526.32" CO2_abs="761617.54" HC_abs="107.03" PMx_abs="16.10" NOx_abs="323.96" fuel_abs="242923.26" electricity_abs="0.00"/>
    </tripinfo>
    <tripinfo id="27" depart="54.00" departLane="-706539634#7_0" departPos="4.60" departSpeed="0.00" departDelay="0.00" arrival="246.00" arrivalLane="-28995751#0_0" arrivalPos="45.49" arrivalSpeed="12.90" duration="192.00" routeLength="1940.96" waitingTime="40.00" waitingCount="1" stopTime="0.00" timeLoss="80.58" rerouteNo="1" devices="tripinfo_27 routing_27 emissions_27" vType="thesis_car" speedFactor="0.95" vaporized="">
        <emissions CO_abs="15742.45" CO2_abs="714308.97" HC_abs="88.00" PMx_abs="14.04" NOx_abs="294.63" fuel_abs="227833.51" electricity_abs="0.00"/>
    </tripinfo>
    <tripinfo id="85" depart="170.00" departLane="894940513_0" departPos="4.60" departSpeed="0.00" departDelay="0.00" arrival="246.00" arrivalLane="23296775_0" arrivalPos="4.83" arrivalSpeed="7.11" duration="76.00" routeLength="545.58" waitingTime="0.00" waitingCount="0" stopTime="0.00" timeLoss="10.36" rerouteNo="1" devices="tripinfo_85 routing_85 emissions_85" vType="thesis_car" speedFactor="0.98" vaporized="">
        <emissions CO_abs="3506.17" CO2_abs="159868.75" HC_abs="19.57" PMx_abs="2.28" NOx_abs="62.90" fuel_abs="50991.99" electricity_abs="0.00"/>
    </tripinfo>
    <tripinfo id="19" depart="38.00" departLane="1057272193#0_1" departPos="0.81" departSpeed="0.00" departDelay="0.00" arrival="247.00" arrivalLane="-28553616_0" arrivalPos="78.62" arrivalSpeed="15.08" duration="209.00" routeLength="3266.02" waitingTime="26.00" waitingCount="1" stopTime="0.00" timeLoss="79.49" rerouteNo="1" devices="tripinfo_19 routing_19 emissions_19" vType="thesis_car" speedFactor="1.16" vaporized="">
        <emissions CO_abs="24679.88" CO2_abs="1289252.68" HC_abs="143.97" PMx_abs="28.85" NOx_abs="541.16" fuel_abs="411210.49" electricity_abs="0.00"/>
    </tripinfo>
    <tripinfo id="11" depart="22.00" departLane="459476433#1_2" departPos="4.60" departSpeed="0.00" departDelay="0.00" arrival="254.00" arrivalLane="28996987#4_0" arrivalPos="87.08" arrivalSpeed="13.77" duration="232.00" routeLength="2435.95" waitingTime="25.00" waitingCount="2" stopTime="0.00" timeLoss="76.36" rerouteNo="1" devices="tripinfo_11 routing_11 emissions_11" vType="thesis_car" speedFactor="1.03" vaporized="">
        <emissions CO_abs="18515.40" CO2_abs="896690.05" HC_abs="105.65" PMx_abs="17.88" NOx_abs="370.92" fuel_abs="286004.29" electricity_abs="0.00"/>
    </tripinfo>
    <tripinfo id="78" depart="156.00" departLane="622155128#0_0" departPos="4.60" departSpeed="0.00" departDelay="0.00" arrival="255.00" arrivalLane="-27274183#3_0" arrivalPos="16.03" arrivalSpeed="13.66" duration="99.00" routeLength="1294.30" waitingTime="5.00" waitingCount="1" stopTime="0.00" timeLoss="27.33" rerouteNo="1" devices="tripinfo_78 routing_78 emissions_78" vType="thesis_car" speedFactor="1.01" vaporized="">
        <emissions CO_abs="8443.79" CO2_abs="447166.67" HC_abs="49.15" PMx_abs="9.13" NOx_abs="181.94" fuel_abs="142625.88" electricity_abs="0.00"/>
    </tripinfo>
    <tripinfo id="18" depart="36.00" departLane="28539908_0" departPos="4.60" departSpeed="0.00" departDelay="0.00" arrival="265.00" arrivalLane="-706539634#0_0" arrivalPos="2.48" arrivalSpeed="12.55" duration="229.00" routeLength="2670.60" waitingTime="0.00" waitingCount="0" stopTime="0.00" timeLoss="40.39" rerouteNo="1" devices="tripinfo_18 routing_18 emissions_18" vType="thesis_car" speedFactor="0.94" vaporized="">
        <emissions CO_abs="12484.06" CO2_abs="762578.47" HC_abs="74.55" PMx_abs="14.03" NOx_abs="303.80" fuel_abs="243228.12" electricity_abs="0.00"/>
    </tripinfo>
    <tripinfo id="0" depart="0.00" departLane="28539954#0_0" departPos="4.60" departSpeed="0.00" departDelay="0.00" arrival="272.00" arrivalLane="-1072176585_0" arrivalPos="24.93" arrivalSpeed="14.08" duration="272.00" routeLength="3286.10" waitingTime="18.00" waitingCount="1" stopTime="0.00" timeLoss="88.25" rerouteNo="1" devices="tripinfo_0 routing_0 emissions_0" vType="thesis_car" speedFactor="1.06" vaporized="">
        <emissions CO_abs="21876.41" CO2_abs="1197787.03" HC_abs="127.99" PMx_abs="24.35" NOx_abs="497.87" fuel_abs="382038.44" electricity_abs="0.00"/>
    </tripinfo>
    <tripinfo id="52" depart="104.00" departLane="-586367901_0" departPos="4.60" departSpeed="0.00" departDelay="0.00" arrival="272.00" arrivalLane="-1411305406_0" arrivalPos="14.89" arrivalSpeed="13.99" duration="168.00" routeLength="3088.37" waitingTime="0.00" waitingCount="0" stopTime="0.00" timeLoss="34.58" rerouteNo="1" devices="tripinfo_52 routing_52 emissions_52" vType="thesis_car" speedFactor="1.02" vaporized="">
        <emissions CO_abs="14413.60" CO2_abs="935269.22" HC_abs="88.28" PMx_abs="19.99" NOx_abs="379.46" fuel_abs="298305.87" electricity_abs="0.00"/>
    </tripinfo>
    <tripinfo id="77" depart="154.00" departLane="987614114#1_0" departPos="4.60" departSpeed="0.00" departDelay="0.00" arrival="276.00" arrivalLane="568142849#0_0" arrivalPos="21.42" arrivalSpeed="4.76" duration="122.00" routeLength="986.17" waitingTime="8.00" waitingCount="1" stopTime="0.00" timeLoss="34.61" rerouteNo="1" devices="tripinfo_77 routing_77 emissions_77" vType="thesis_car" speedFactor="0.98" vaporized="">
        <emissions CO_abs="6798.21" CO2_abs="324240.17" HC_abs="38.21" PMx_abs="5.30" NOx_abs="129.54" fuel_abs="103419.34" electricity_abs="0.00"/>
    </tripinfo>
    <tripinfo id="53" depart="106.00" departLane="744615658#1_3" departPos="4.60" departSpeed="0.00" departDelay="0.00" arrival="279.00" arrivalLane="749514001#1_0" arrivalPos="18.65" arrivalSpeed="8.25" duration="173.00" routeLength="1573.38" waitingTime="52.00" waitingCount="2" stopTime="0.00" timeLoss="90.87" rerouteNo="1" devices="tripinfo_53 routing_53 emissions_53" vType="thesis_car" speedFactor="1.10" vaporized="">
        <emissions CO_abs="17532.44" CO2_abs="681340.56" HC_abs="95.77" PMx_abs="14.18" NOx_abs="286.51" fuel_abs="217318.77" electricity_abs="0.00"/>
    </tripinfo>
    <tripinfo id="9" depart="18.00" departLane="842050932_0" departPos="4.60" departSpeed="0.00" departDelay="0.00" arrival="281.00" arrivalLane="-491362473#0_0" arrivalPos="28.48" arrivalSpeed="10.64" duration="263.00" routeLength="2773.00" waitingTime="51.00" waitingCount="3" stopTime="0.00" timeLoss="100.57" rerouteNo="1" devices="tripinfo_9 routing_9 emissions_9" vType="thesis_car" speedFactor="0.86" vaporized="">
        <emissions CO_abs="21994.12" CO2_abs="1007425.43" HC_abs="123.72" PMx_abs="20.05" NOx_abs="417.34" fuel_abs="321324.51" electricity_abs="0.00"/>
    </tripinfo>
    <tripinfo id="54" depart="108.00" departLane="-184852743#0_1" departPos="4.60" departSpeed="0.00" departDelay="0.00" arrival="283.00" arrivalLane="32906098#1_0" arrivalPos="105.81" arrivalSpeed="13.16" duration="175.00" routeLength="1121.61" waitingTime="98.00" waitingCount="2" stopTime="0.00" timeLoss="119.94" rerouteNo="1" devices="tripinfo_54 routing_54 emissions_54" vType="thesis_car" speedFactor="1.00" vaporized="">
        <emissions CO_abs="21975.03" CO2_abs="626530.37" HC_abs="114.79" PMx_abs="13.91" NOx_abs="269.31" fuel_abs="199839.37" electricity_abs="0.00"/>
    </tripinfo>
    <tripinfo id="24" depart="48.00" departLane="23370380_0" departPos="4.60" departSpeed="0.00" departDelay="0.00" arrival="285.00" arrivalLane="28995163#11_0" arrivalPos="23.68" arrivalSpeed="11.21" duration="237.00" routeLength="2542.30" waitingTime="44.00" waitingCount="2" stopTime="0.00" timeLoss="93.33" rerouteNo="1" devices="tripinfo_24 routing_24 emissions_24" vType="thesis_car" speedFactor="0.83" vaporized="">
        <emissions CO_abs="19999.59" CO2_abs="951012.20" HC_abs="113.19" PMx_abs="19.12" NOx_abs="395.98" fuel_abs="303330.37" electricity_abs="0.00"/>
    </tripinfo>
    <tripinfo id="45" depart="90.00" departLane="744384952_0" departPos="4.60" departSpeed="0.00" departDelay="0.00" arrival="289.00" arrivalLane="-28995669_0" arrivalPos="88.37" arrivalSpeed="14.06" duration="199.00" routeLength="2130.13" waitingTime="45.00" waitingCount="3" stopTime="0.00" timeLoss="112.14" rerouteNo="1" devices="tripinfo_45 routing_45 emissions_45" vType="thesis_car" speedFactor="1.09" vaporized="">
        <emissions CO_abs="20722.16" CO2_abs="935689.68" HC_abs="116.62" PMx_abs="19.89" NOx_abs="397.27" fuel_abs="298442.71" electricity_abs="0.00"/>
    </tripinfo>
    <tripinfo id="101" depart="202.00" departLane="1057272192#1_0" departPos="4.60" departSpeed="0.00" departDelay="0.00" arrival="290.00" arrivalLane="-27274180_0" arrivalPos="4.34" arrivalSpeed="6.45" duration="88.00" routeLength="726.35" waitingTime="0.00" waitingCount="0" stopTime="0.00" timeLoss="21.95" rerouteNo="1" devices="tripinfo_101 routing_101 emissions_101" vType="thesis_car" speedFactor="0.96" vaporized="">
        <emissions CO_abs="4804.89" CO2_abs="251649.01" HC_abs="27.76" PMx_abs="4.69" NOx_abs="105.22" fuel_abs="80264.73" electricity_abs="0.00"/>
    </tripinfo>
    <tripinfo id="33" depart="66.00" departLane="23370659#1_2" departPos="4.60" departSpeed="0.00" departDelay="0.00" arrival="295.00" arrivalLane="-28995669_0" arrivalPos="88.37" arrivalSpeed="15.32" duration="229.00" routeLength="1944.86" waitingTime="93.00" waitingCount="2" stopTime="0.00" timeLoss="138.44" rerouteNo="1" devices="tripinfo_33 routing_33 emissions_33" vType="thesis_car" speedFactor="1.17" vaporized="">
        <emissions CO_abs="27134.88" CO2_abs="975484.17" HC_abs="146.59" PMx_abs="21.21" NOx_abs="414.70" fuel_abs="311138.45" electricity_abs="0.00"/>
    </tripinfo>
    <tripinfo id="38" depart="76.00" departLane="-184736575#1_0" departPos="4.60" departSpeed="0.00" departDelay="0.00" arrival="297.00" arrivalLane="-747853025#0_0" arrivalPos="33.63" arrivalSpeed="14.71" duration="221.00" routeLength="2200.27" waitingTime="48.00" waitingCount="2" stopTime="0.00" timeLoss="107.81" rerouteNo="1" devices="tripinfo_38 routing_38 emissions_38" vType="thesis_car" speedFactor="1.10" vaporized="">
        <emissions CO_abs="21919.94" CO2_abs="955942.85" HC_abs="122.67" PMx_abs="20.10" NOx_abs="403.27" fuel_abs="304903.41" electricity_abs="0.00"/>
    </tripinfo>
    <tripinfo id="142" depart="284.00" departLane="1072138522_0" departPos="4.60" departSpeed="0.00" departDelay="0.00" arrival="300.00" arrivalLane="23296774_0" arrivalPos="76.38" arrivalSpeed="12.61" duration="16.00" routeLength="137.45" waitingTime="0.00" waitingCount="0" stopTime="0.00" timeLoss="4.65" rerouteNo="0" devices="tripinfo_142 routing_142 emissions_142" vType="thesis_car" speedFactor="0.94" vaporized="">
        <emissions CO_abs="1385.11" CO2_abs="71079.00" HC_abs="7.96" PMx_abs="1.38" NOx_abs="30.05" fuel_abs="22670.96" electricity_abs="0.00"/>
    </tripinfo>
    <tripinfo id="51" depart="102.00" departLane="744620962#1_0" departPos="4.60" departSpeed="0.00" departDelay="0.00" arrival="303.00" arrivalLane="555335240#5_0" arrivalPos="40.67" arrivalSpeed="15.86" duration="201.00" routeLength="1942.61" waitingTime="74.00" waitingCount="2" stopTime="0.00" timeLoss="108.71" rerouteNo="1" devices="tripinfo_51 routing_51 emissions_51" vType="thesis_car" speedFactor="1.17" vaporized="">
        <emissions CO_abs="22738.73" CO2_abs="852711.59" HC_abs="123.55" PMx_abs="18.46" NOx_abs="360.25" fuel_abs="271978.76" electricity_abs="0.00"/>
    </tripinfo>
    <tripinfo id="20" depart="40.00" departLane="-4940135_0" departPos="4.60" departSpeed="0.00" departDelay="0.00" arrival="304.00" arrivalLane="747853023#0_1" arrivalPos="57.00" arrivalSpeed="28.04" duration="264.00" routeLength="2914.33" waitingTime="59.00" waitingCount="5" stopTime="0.00" timeLoss="140.86" rerouteNo="1" devices="tripinfo_20 routing_20 emissions_20" vType="thesis_car" speedFactor="1.02" vaporized="">
        <emissions CO_abs="30352.32" CO2_abs="1391915.54" HC_abs="171.67" PMx_abs="30.34" NOx_abs="594.26" fuel_abs="443957.14" electricity_abs="0.00"/>
    </tripinfo>
    <tripinfo id="25" depart="50.00" departLane="586354144#0_0" departPos="4.60" departSpeed="0.00" departDelay="0.00" arrival="304.00" arrivalLane="354718299#1_0" arrivalPos="64.46" arrivalSpeed="11.26" duration="254.00" routeLength="2883.55" waitingTime="25.00" waitingCount="2" stopTime="0.00" timeLoss="77.20" rerouteNo="1" devices="tripinfo_25 routing_25 emissions_25" vType="thesis_car" speedFactor="0.87" vaporized="">
        <emissions CO_abs="18273.54" CO2_abs="969729.31" HC_abs="105.90" PMx_abs="18.90" NOx_abs="398.03" fuel_abs="309299.83" electricity_abs="0.00"/>
    </tripinfo>
    <tripinfo id="109" depart="218.00" departLane="184852740#0_2" departPos="4.60" departSpeed="0.00" departDelay="0.00" arrival="315.00" arrivalLane="744944963#1_0" arrivalPos="50.54" arrivalSpeed="20.80" duration="97.00" routeLength="900.60" waitingTime="6.00" waitingCount="1" stopTime="0.00" timeLoss="38.56" rerouteNo="1" devices="tripinfo_109 routing_109 emissions_109" vType="thesis_car" speedFactor="0.96" vaporized="">
        <emissions CO_abs="8133.90" CO2_abs="412591.95" HC_abs="46.75" PMx_abs="8.06" NOx_abs="172.99" fuel_abs="131598.18" electricity_abs="0.00"/>
    </tripinfo>
    <tripinfo id="148" depart="296.00" departLane="1278655004_0" departPos="4.60" departSpeed="0.00" departDelay="0.00" arrival="316.00" arrivalLane="-28996992#2_0" arrivalPos="33.23" arrivalSpeed="12.47" duration="20.00" routeLength="147.67" waitingTime="0.00" waitingCount="0" stopTime="0.00" timeLoss="4.84" rerouteNo="1" devices="tripinfo_148 routing_148 emissions_148" vType="thesis_car" speedFactor="0.97" vaporized="">
        <emissions CO_abs="1685.33" CO2_abs="81165.51" HC_abs="9.59" PMx_abs="1.59" NOx_abs="34.58" fuel_abs="25888.14" electricity_abs="0.00"/>
    </tripinfo>
    <tripinfo id="23" depart="46.00" departLane="96487801#0_0" departPos="4.60" departSpeed="0.00" departDelay="0.00" arrival="317.00" arrivalLane="28539739#2_0" arrivalPos="12.76" arrivalSpeed="12.11" duration="271.00" routeLength="2365.38" waitingTime="3.00" waitingCount="1" stopTime="0.00" timeLoss="48.77" rerouteNo="1" devices="tripinfo_23 routing_23 emissions_23" vType="thesis_car" speedFactor="0.89" vaporized="">
        <emissions CO_abs="13600.08" CO2_abs="723453.82" HC_abs="78.51" PMx_abs="12.36" NOx_abs="290.69" fuel_abs="230750.73" electricity_abs="0.00"/>
    </tripinfo>