<?xml version="1.0" encoding="UTF-8"?>

<!-- generated on 2026-01-14T11:59:18.564682+08:00 by Eclipse SUMO GUI 1.25.0
<sumoConfiguration xmlns:xsi="http://www.w3.org/2001/XMLSchema-instance" xsi:noNamespaceSchemaLocation="http://sumo.dlr.de/xsd/sumoConfiguration.xsd">

    <input>
        <net-file value="final_map.net.xml"/>
        <route-files value="trips_med.xml"/>
        <additional-files value="osm.poly.xml.gz,output.add.xml,vtypes.add.xml"/>
    </input>

    <output>
        <summary-output value="data\data_selfish_med_summary.xml"/>
        <tripinfo-output value="data\data_selfish_med_tripinfo.xml"/>
        <statistic-output value="data\data_selfish_med_stats.xml"/>
    </output>

    <processing>
        <ignore-route-errors value="true"/>
        <time-to-teleport value="300"/>
        <tls.actuated.jam-threshold value="30"/>
    </processing>

    <routing>
        <device.rerouting.adaptation-steps value="18"/>
        <device.rerouting.adaptation-interval value="10"/>
    </routing>

    <report>
        <verbose value="true"/>
        <duration-log.statistics value="true"/>
        <no-step-log value="true"/>
    </report>

    <emissions>
        <device.emissions.probability value="1.0"/>
    </emissions>

    <gui_only>
        <gui-settings-file value="osm.view.xml"/>
    </gui_only>

</sumoConfiguration>
-->

<tripinfos xmlns:xsi="http://www.w3.org/2001/XMLSchema-instance" xsi:noNamespaceSchemaLocation="http://sumo.dlr.de/xsd/tripinfo_file.xsd">
    <tripinfo id="12" depart="12.00" departLane="23296741#0_0" departPos="4.60" departSpeed="0.00" departDelay="0.00" arrival="39.00" arrivalLane="896483082#1_0" arrivalPos="7.37" arrivalSpeed="11.56" duration="27.00" routeLength="261.74" waitingTime="0.00" waitingCount="0" stopTime="0.00" timeLoss="7.90" rerouteNo="1" devices="tripinfo_12 routing_12 emissions_12" vType="thesis_car" speedFactor="1.05" vaporized="">
        <emissions CO_abs="1844.35" CO2_abs="107233.04" HC_abs="10.89" PMx_abs="1.99" NOx_abs="44.66" fuel_abs="34202.41" electricity_abs="0.00"/>
    </tripinfo>
    <tripinfo id="32" depart="32.00" departLane="-215516157_0" departPos="4.60" departSpeed="0.00" departDelay="0.00" arrival="46.00" arrivalLane="-1281884999_0" arrivalPos="17.68" arrivalSpeed="13.92" duration="14.00" routeLength="99.54" waitingTime="0.00" waitingCount="0" stopTime="0.00" timeLoss="5.68" rerouteNo="1" devices="tripinfo_32 routing_32 emissions_32" vType="thesis_car" speedFactor="1.01" vaporized="">
        <emissions CO_abs="1205.94" CO2_abs="59286.82" HC_abs="6.87" PMx_abs="1.15" NOx_abs="25.12" fuel_abs="18909.82" electricity_abs="0.00"/>
    </tripinfo>
    <tripinfo id="15" depart="15.00" departLane="-28996951_0" departPos="4.60" departSpeed="0.00" departDelay="0.00" arrival="87.00" arrivalLane="-28996992#0_0" arrivalPos="47.42" arrivalSpeed="12.58" duration="72.00" routeLength="474.30" waitingTime="0.00" waitingCount="0" stopTime="0.00" timeLoss="18.41" rerouteNo="1" devices="tripinfo_15 routing_15 emissions_15" vType="thesis_car" speedFactor="0.93" vaporized="">
        <emissions CO_abs="4245.60" CO2_abs="188188.04" HC_abs="23.67" PMx_abs="3.49" NOx_abs="78.86" fuel_abs="60023.94" electricity_abs="0.00"/>
    </tripinfo>
    <tripinfo id="39" depart="39.00" departLane="-23296751#2_0" departPos="4.60" departSpeed="0.00" departDelay="0.00" arrival="96.00" arrivalLane="1064374314#1_0" arrivalPos="38.86" arrivalSpeed="12.30" duration="57.00" routeLength="528.54" waitingTime="0.00" waitingCount="0" stopTime="0.00" timeLoss="8.87" rerouteNo="1" devices="tripinfo_39 routing_39 emissions_39" vType="thesis_car" speedFactor="0.90" vaporized="">
        <emissions CO_abs="2571.22" CO2_abs="154453.51" HC_abs="15.22" PMx_abs="2.52" NOx_abs="61.88" fuel_abs="49263.93" electricity_abs="0.00"/>
    </tripinfo>
    <tripinfo id="21" depart="21.00" departLane="28539908_0" departPos="4.60" departSpeed="0.00" departDelay="0.00" arrival="103.00" arrivalLane="267646774_0" arrivalPos="70.87" arrivalSpeed="13.22" duration="82.00" routeLength="994.64" waitingTime="0.00" waitingCount="0" stopTime="0.00" timeLoss="9.56" rerouteNo="1" devices="tripinfo_21 routing_21 emissions_21" vType="thesis_car" speedFactor="1.01" vaporized="">
        <emissions CO_abs="2658.93" CO2_abs="237206.58" HC_abs="17.19" PMx_abs="3.55" NOx_abs="90.98" fuel_abs="75658.16" electricity_abs="0.00"/>
    </tripinfo>
    <tripinfo id="77" depart="77.00" departLane="894940513_0" departPos="4.60" departSpeed="0.00" departDelay="0.00" arrival="109.00" arrivalLane="23296754#1_0" arrivalPos="72.73" arrivalSpeed="13.46" duration="32.00" routeLength="292.72" waitingTime="0.00" waitingCount="0" stopTime="0.00" timeLoss="7.80" rerouteNo="1" devices="tripinfo_77 routing_77 emissions_77" vType="thesis_car" speedFactor="0.98" vaporized="">
        <emissions CO_abs="1935.92" CO2_abs="111173.66" HC_abs="11.37" PMx_abs="1.98" NOx_abs="45.79" fuel_abs="35459.38" electricity_abs="0.00"/>
    </tripinfo>
    <tripinfo id="40" depart="40.00" departLane="1341838025_2" departPos="4.59" departSpeed="0.00" departDelay="0.00" arrival="113.00" arrivalLane="770797793_0" arrivalPos="0.20" arrivalSpeed="8.54" duration="73.00" routeLength="1063.34" waitingTime="0.00" waitingCount="0" stopTime="0.00" timeLoss="19.53" rerouteNo="1" devices="tripinfo_40 routing_40 emissions_40" vType="thesis_car" speedFactor="1.03" vaporized="">
        <emissions CO_abs="4927.47" CO2_abs="340100.58" HC_abs="30.41" PMx_abs="6.70" NOx_abs="138.23" fuel_abs="108475.82" electricity_abs="0.00"/>
    </tripinfo>
    <tripinfo id="17" depart="17.00" departLane="-23296745#1_0" departPos="4.60" departSpeed="0.00" departDelay="0.00" arrival="118.00" arrivalLane="-28996500#0_0" arrivalPos="63.26" arrivalSpeed="12.34" duration="101.00" routeLength="952.28" waitingTime="0.00" waitingCount="0" stopTime="0.00" timeLoss="19.81" rerouteNo="1" devices="tripinfo_17 routing_17 emissions_17" vType="thesis_car" speedFactor="0.94" vaporized="">
        <emissions CO_abs="4791.59" CO2_abs="295550.33" HC_abs="28.52" PMx_abs="5.02" NOx_abs="119.64" fuel_abs="94267.33" electricity_abs="0.00"/>
    </tripinfo>
    <tripinfo id="38" depart="38.00" departLane="-354718285_0" departPos="4.60" departSpeed="0.00" departDelay="0.00" arrival="122.00" arrivalLane="28539493#1_0" arrivalPos="53.76" arrivalSpeed="14.11" duration="84.00" routeLength="929.05" waitingTime="2.00" waitingCount="1" stopTime="0.00" timeLoss="19.82" rerouteNo="1" devices="tripinfo_38 routing_38 emissions_38" vType="thesis_car" speedFactor="1.10" vaporized="">
        <emissions CO_abs="4443.69" CO2_abs="286750.27" HC_abs="26.70" PMx_abs="4.99" NOx_abs="115.54" fuel_abs="91460.31" electricity_abs="0.00"/>
    </tripinfo>
    <tripinfo id="79" depart="79.00" departLane="184731538_0" departPos="4.60" departSpeed="0.00" departDelay="0.00" arrival="124.00" arrivalLane="586354144#1_0" arrivalPos="5.76" arrivalSpeed="8.94" duration="45.00" routeLength="447.25" waitingTime="0.00" waitingCount="0" stopTime="0.00" timeLoss="11.78" rerouteNo="1" devices="tripinfo_79 routing_79 emissions_79" vType="thesis_car" speedFactor="1.09" vaporized="">
        <emissions CO_abs="2774.06" CO2_abs="159423.23" HC_abs="16.31" PMx_abs="2.89" NOx_abs="65.77" fuel_abs="50848.78" electricity_abs="0.00"/>
    </tripinfo>
    <tripinfo id="47" depart="47.00" departLane="313048179#1_0" departPos="4.60" departSpeed="0.00" departDelay="0.00" arrival="126.00" arrivalLane="145087237#1_0" arrivalPos="9.31" arrivalSpeed="11.80" duration="79.00" routeLength="688.37" waitingTime="0.00" waitingCount="0" stopTime="0.00" timeLoss="14.37" rerouteNo="1" devices="tripinfo_47 routing_47 emissions_47" vType="thesis_car" speedFactor="0.90" vaporized="">
        <emissions CO_abs="3990.31" CO2_abs="229849.96" HC_abs="23.50" PMx_abs="3.82" NOx_abs="93.19" fuel_abs="73312.08" electricity_abs="0.00"/>
    </tripinfo>
    <tripinfo id="20" depart="20.00" departLane="-354718285_0" departPos="4.60" departSpeed="0.00" departDelay="0.00" arrival="130.00" arrivalLane="747333148#0_0" arrivalPos="1.58" arrivalSpeed="6.45" duration="110.00" routeLength="936.68" waitingTime="0.00" waitingCount="0" stopTime="0.00" timeLoss="24.03" rerouteNo="1" devices="tripinfo_20 routing_20 emissions_20" vType="thesis_car" speedFactor="1.02" vaporized="">
        <emissions CO_abs="6437.86" CO2_abs="323370.75" HC_abs="36.76" PMx_abs="5.96" NOx_abs="134.20" fuel_abs="103141.00" electricity_abs="0.00"/>
    </tripinfo>
    <tripinfo id="67" depart="67.00" departLane="902908203_0" departPos="4.60" departSpeed="0.00" departDelay="0.00" arrival="133.00" arrivalLane="-184731538_0" arrivalPos="21.11" arrivalSpeed="10.63" duration="66.00" routeLength="614.88" waitingTime="0.00" waitingCount="0" stopTime="0.00" timeLoss="14.35" rerouteNo="1" devices="tripinfo_67 routing_67 emissions_67" vType="thesis_car" speedFactor="0.91" vaporized="">
        <emissions CO_abs="3276.40" CO2_abs="195267.69" HC_abs="19.41" PMx_abs="3.30" NOx_abs="78.98" fuel_abs="62281.75" electricity_abs="0.00"/>
    </tripinfo>
    <tripinfo id="117" depart="117.00" departLane="706539634#0_0" departPos="2.48" departSpeed="0.00" departDelay="0.00" arrival="138.00" arrivalLane="896943854_0" arrivalPos="28.87" arrivalSpeed="12.11" duration="21.00" routeLength="159.30" waitingTime="0.00" waitingCount="0" stopTime="0.00" timeLoss="7.33" rerouteNo="1" devices="tripinfo_117 routing_117 emissions_117" vType="thesis_car" speedFactor="1.00" vaporized="">
        <emissions CO_abs="1724.61" CO2_abs="85545.26" HC_abs="9.87" PMx_abs="1.65" NOx_abs="36.33" fuel_abs="27285.07" electricity_abs="0.00"/>
    </tripinfo>
    <tripinfo id="85" depart="85.00" departLane="27274180_0" departPos="4.34" departSpeed="0.00" departDelay="0.00" arrival="149.00" arrivalLane="27274186_0" arrivalPos="14.23" arrivalSpeed="10.46" duration="64.00" routeLength="526.64" waitingTime="0.00" waitingCount="0" stopTime="0.00" timeLoss="12.59" rerouteNo="1" devices="tripinfo_85 routing_85 emissions_85" vType="thesis_car" speedFactor="0.98" vaporized="">
        <emissions CO_abs="3939.23" CO2_abs="196552.71" HC_abs="22.49" PMx_abs="3.58" NOx_abs="81.58" fuel_abs="62691.70" electricity_abs="0.00"/>
    </tripinfo>
    <tripinfo id="49" depart="49.00" departLane="-586361756#1_0" departPos="4.60" departSpeed="0.00" departDelay="0.00" arrival="153.00" arrivalLane="-1354862882_0" arrivalPos="31.71" arrivalSpeed="4.01" duration="104.00" routeLength="1424.33" waitingTime="0.00" waitingCount="0" stopTime="0.00" timeLoss="17.35" rerouteNo="1" devices="tripinfo_49 routing_49 emissions_49" vType="thesis_car" speedFactor="0.85" vaporized="">
        <emissions CO_abs="5105.34" CO2_abs="358140.22" HC_abs="31.29" PMx_abs="6.47" NOx_abs="139.67" fuel_abs="114230.27" electricity_abs="0.00"/>
    </tripinfo>
    <tripinfo id="64" depart="64.00" departLane="1427235911_0" departPos="4.60" departSpeed="0.00" departDelay="0.00" arrival="153.00" arrivalLane="354718299#1_0" arrivalPos="64.46" arrivalSpeed="12.12" duration="89.00" routeLength="1138.82" waitingTime="0.00" waitingCount="0" stopTime="0.00" timeLoss="24.21" rerouteNo="1" devices="tripinfo_64 routing_64 emissions_64" vType="thesis_car" speedFactor="0.94" vaporized="">
        <emissions CO_abs="6629.21" CO2_abs="418634.99" HC_abs="40.02" PMx_abs="8.35" NOx_abs="173.11" fuel_abs="133524.63" electricity_abs="0.00"/>
    </tripinfo>
    <tripinfo id="11" depart="11.00" departLane="428836643#1_0" departPos="4.60" departSpeed="0.00" departDelay="0.00" arrival="155.00" arrivalLane="28996951_0" arrivalPos="30.72" arrivalSpeed="12.37" duration="144.00" routeLength="1796.32" waitingTime="0.00" waitingCount="0" stopTime="0.00" timeLoss="29.90" rerouteNo="1" devices="tripinfo_11 routing_11 emissions_11" vType="thesis_car" speedFactor="1.03" vaporized="">
        <emissions CO_abs="9390.28" CO2_abs="550851.75" HC_abs="55.88" PMx_abs="10.77" NOx_abs="222.89" fuel_abs="175696.49" electricity_abs="0.00"/>
    </tripinfo>
    <tripinfo id="73" depart="73.00" departLane="-354718285_0" departPos="4.60" departSpeed="0.00" departDelay="0.00" arrival="157.00" arrivalLane="354718299#1_0" arrivalPos="64.46" arrivalSpeed="13.41" duration="84.00" routeLength="977.53" waitingTime="0.00" waitingCount="0" stopTime="0.00" timeLoss="14.35" rerouteNo="1" devices="tripinfo_73 routing_73 emissions_73" vType="thesis_car" speedFactor="1.06" vaporized="">
        <emissions CO_abs="3836.79" CO2_abs="284309.46" HC_abs="23.79" PMx_abs="4.82" NOx_abs="113.82" fuel_abs="90681.56" electricity_abs="0.00"/>
    </tripinfo>
    <tripinfo id="80" depart="80.00" departLane="-28539575#1_0" departPos="4.60" departSpeed="0.00" departDelay="0.00" arrival="157.00" arrivalLane="800671112#12_0" arrivalPos="105.93" arrivalSpeed="13.57" duration="77.00" routeLength="829.14" waitingTime="0.00" waitingCount="0" stopTime="0.00" timeLoss="15.50" rerouteNo="1" devices="tripinfo_80 routing_80 emissions_80" vType="thesis_car" speedFactor="1.03" vaporized="">
        <emissions CO_abs="4041.15" CO2_abs="268312.19" HC_abs="24.46" PMx_abs="4.70" NOx_abs="108.82" fuel_abs="85579.26" electricity_abs="0.00"/>
    </tripinfo>
    <tripinfo id="33" depart="33.00" departLane="-23296751#2_0" departPos="4.60" departSpeed="0.00" departDelay="0.00" arrival="164.00" arrivalLane="27494654_0" arrivalPos="1.88" arrivalSpeed="12.91" duration="131.00" routeLength="1436.33" waitingTime="0.00" waitingCount="0" stopTime="0.00" timeLoss="25.14" rerouteNo="1" devices="tripinfo_33 routing_33 emissions_33" vType="thesis_car" speedFactor="1.17" vaporized="">
        <emissions CO_abs="7004.61" CO2_abs="481713.15" HC_abs="42.96" PMx_abs="8.54" NOx_abs="196.23" fuel_abs="153644.08" electricity_abs="0.00"/>
    </tripinfo>
    <tripinfo id="96" depart="96.00" departLane="561395730#1_0" departPos="4.60" departSpeed="0.00" departDelay="0.00" arrival="165.00" arrivalLane="28996500#2_0" arrivalPos="77.46" arrivalSpeed="12.79" duration="69.00" routeLength="436.00" waitingTime="0.00" waitingCount="0" stopTime="0.00" timeLoss="9.57" rerouteNo="1" devices="tripinfo_96 routing_96 emissions_96" vType="thesis_car" speedFactor="1.01" vaporized="">
        <emissions CO_abs="3672.06" CO2_abs="146541.66" HC_abs="20.04" PMx_abs="2.47" NOx_abs="59.89" fuel_abs="46741.03" electricity_abs="0.00"/>
    </tripinfo>
    <tripinfo id="153" depart="153.00" departLane="-28995806#2_0" departPos="4.60" departSpeed="0.00" departDelay="0.00" arrival="167.00" arrivalLane="28995806#2_0" arrivalPos="38.59" arrivalSpeed="11.25" duration="14.00" routeLength="77.25" waitingTime="0.00" waitingCount="0" stopTime="0.00" timeLoss="6.55" rerouteNo="0" devices="tripinfo_153 routing_153 emissions_153" vType="thesis_car" speedFactor="0.93" vaporized="">
        <emissions CO_abs="1294.94" CO2_abs="54120.63" HC_abs="7.17" PMx_abs="1.07" NOx_abs="23.23" fuel_abs="17262.13" electricity_abs="0.00"/>
    </tripinfo>
    <tripinfo id="46" depart="46.00" departLane="28997018#0_0" departPos="4.60" departSpeed="0.00" departDelay="0.00" arrival="172.00" arrivalLane="174398016#1_1" arrivalPos="77.69" arrivalSpeed="13.31" duration="126.00" routeLength="1003.80" waitingTime="50.00" waitingCount="1" stopTime="0.00" timeLoss="69.39" rerouteNo="1" devices="tripinfo_46 routing_46 emissions_46" vType="thesis_car" speedFactor="1.00" vaporized="">
        <emissions CO_abs="13296.87" CO2_abs="458453.13" HC_abs="71.18" PMx_abs="9.57" NOx_abs="193.39" fuel_abs="146228.00" electricity_abs="0.00"/>
    </tripinfo>
    <tripinfo id="53" depart="53.00" departLane="1436005548_1" departPos="4.60" departSpeed="0.00" departDelay="0.00" arrival="172.00" arrivalLane="184736575#1_0" arrivalPos="30.04" arrivalSpeed="11.41" duration="119.00" routeLength="1949.56" waitingTime="0.00" waitingCount="0" stopTime="0.00" timeLoss="29.22" rerouteNo="1" devices="tripinfo_53 routing_53 emissions_53" vType="thesis_car" speedFactor="1.10" vaporized="">
        <emissions CO_abs="10271.70" CO2_abs="662052.25" HC_abs="62.76" PMx_abs="13.90" NOx_abs="271.37" fuel_abs="211162.81" electricity_abs="0.00"/>
    </tripinfo>
    <tripinfo id="70" depart="70.00" departLane="1272650816_0" departPos="4.60" departSpeed="0.00" departDelay="0.00" arrival="173.00" arrivalLane="-28996500#0_0" arrivalPos="63.26" arrivalSpeed="13.71" duration="103.00" routeLength="1008.07" waitingTime="0.00" waitingCount="0" stopTime="0.00" timeLoss="22.63" rerouteNo="1" devices="tripinfo_70 routing_70 emissions_70" vType="thesis_car" speedFactor="1.02" vaporized="">
        <emissions CO_abs="5932.38" CO2_abs="358225.33" HC_abs="35.24" PMx_abs="6.48" NOx_abs="147.59" fuel_abs="114257.47" electricity_abs="0.00"/>
    </tripinfo>
    <tripinfo id="149" depart="149.00" departLane="28553592_0" departPos="4.60" departSpeed="0.00" departDelay="0.00" arrival="177.00" arrivalLane="-28553639#0_0" arrivalPos="78.55" arrivalSpeed="13.61" duration="28.00" routeLength="267.41" waitingTime="0.00" waitingCount="0" stopTime="0.00" timeLoss="7.18" rerouteNo="1" devices="tripinfo_149 routing_149 emissions_149" vType="thesis_car" speedFactor="1.04" vaporized="">
        <emissions CO_abs="1910.34" CO2_abs="110827.73" HC_abs="11.20" PMx_abs="2.05" NOx_abs="45.89" fuel_abs="35348.96" electricity_abs="0.00"/>
    </tripinfo>
    <tripinfo id="152" depart="152.00" departLane="622155128#0_0" departPos="4.60" departSpeed="0.00" departDelay="0.00" arrival="180.00" arrivalLane="-1427235911_0" arrivalPos="57.33" arrivalSpeed="13.62" duration="28.00" routeLength="408.60" waitingTime="0.00" waitingCount="0" stopTime="0.00" timeLoss="10.37" rerouteNo="1" devices="tripinfo_152 routing_152 emissions_152" vType="thesis_car" speedFactor="1.07" vaporized="">
        <emissions CO_abs="2622.88" CO2_abs="165028.49" HC_abs="15.87" PMx_abs="3.43" NOx_abs="69.14" fuel_abs="52636.10" electricity_abs="0.00"/>
    </tripinfo>
    <tripinfo id="44" depart="44.00" departLane="-586354143_0" departPos="4.60" departSpeed="0.00" departDelay="0.00" arrival="186.00" arrivalLane="28537229#1_0" arrivalPos="107.39" arrivalSpeed="14.27" duration="142.00" routeLength="1669.48" waitingTime="15.00" waitingCount="1" stopTime="0.00" timeLoss="44.88" rerouteNo="1" devices="tripinfo_44 routing_44 emissions_44" vType="thesis_car" speedFactor="1.04" vaporized="">
        <emissions CO_abs="10595.34" CO2_abs="575605.30" HC_abs="61.58" PMx_abs="11.20" NOx_abs="234.33" fuel_abs="183592.08" electricity_abs="0.00"/>
    </tripinfo>
    <tripinfo id="66" depart="66.00" departLane="-226831895#1_0" departPos="4.60" departSpeed="0.00" departDelay="0.00" arrival="187.00" arrivalLane="1064374314#1_0" arrivalPos="38.86" arrivalSpeed="12.06" duration="121.00" routeLength="938.26" waitingTime="0.00" waitingCount="0" stopTime="0.00" timeLoss="14.62" rerouteNo="1" devices="tripinfo_66 routing_66 emissions_66" vType="thesis_car" speedFactor="0.91" vaporized="">
        <emissions CO_abs="5486.92" CO2_abs="275827.89" HC_abs="31.25" PMx_abs="4.20" NOx_abs="109.63" fuel_abs="87977.88" electricity_abs="0.00"/>
    </tripinfo>
    <tripinfo id="162" depart="162.00" departLane="28995221_0" departPos="4.60" departSpeed="0.00" departDelay="0.00" arrival="188.00" arrivalLane="1302514926_0" arrivalPos="45.95" arrivalSpeed="13.57" duration="26.00" routeLength="229.93" waitingTime="0.00" waitingCount="0" stopTime="0.00" timeLoss="8.23" rerouteNo="1" devices="tripinfo_162 routing_162 emissions_162" vType="thesis_car" speedFactor="0.99" vaporized="">
        <emissions CO_abs="2177.58" CO2_abs="119994.94" HC_abs="12.76" PMx_abs="2.30" NOx_abs="50.70" fuel_abs="38272.84" electricity_abs="0.00"/>
    </tripinfo>
    <tripinfo id="130" depart="130.00" departLane="-23296751#2_0" departPos="4.60" departSpeed="0.00" departDelay="0.00" arrival="189.00" arrivalLane="1064374314#1_0" arrivalPos="38.86" arrivalSpeed="14.03" duration="59.00" routeLength="528.54" waitingTime="3.00" waitingCount="1" stopTime="0.00" timeLoss="16.90" rerouteNo="1" devices="tripinfo_130 routing_130 emissions_130" vType="thesis_car" speedFactor="1.03" vaporized="">
        <emissions CO_abs="3897.83" CO2_abs="202311.23" HC_abs="22.38" PMx_abs="3.70" NOx_abs="83.50" fuel_abs="64528.33" electricity_abs="0.00"/>
    </tripinfo>
    <tripinfo id="169" depart="169.00" departLane="-354718299#1_0" departPos="4.60" departSpeed="0.00" departDelay="0.00" arrival="190.00" arrivalLane="-354718298_0" arrivalPos="116.52" arrivalSpeed="11.98" duration="21.00" routeLength="190.48" waitingTime="0.00" waitingCount="0" stopTime="0.00" timeLoss="5.73" rerouteNo="0" devices="tripinfo_169 routing_169 emissions_169" vType="thesis_car" speedFactor="0.94" vaporized="">
        <emissions CO_abs="1445.87" CO2_abs="80752.34" HC_abs="8.46" PMx_abs="1.41" NOx_abs="33.06" fuel_abs="25756.42" electricity_abs="0.00"/>
    </tripinfo>
    <tripinfo id="103" depart="103.00" departLane="586354144#0_0" departPos="4.60" departSpeed="0.00" departDelay="0.00" arrival="191.00" arrivalLane="-183689239#0_0" arrivalPos="9.45" arrivalSpeed="12.63" duration="88.00" routeLength="854.25" waitingTime="0.00" waitingCount="0" stopTime="0.00" timeLoss="17.84" rerouteNo="1" devices="tripinfo_103 routing_103 emissions_103" vType="thesis_car" speedFactor="0.95" vaporized="">
        <emissions CO_abs="4453.41" CO2_abs="273262.53" HC_abs="26.61" PMx_abs="4.72" NOx_abs="111.22" fuel_abs="87158.45" electricity_abs="0.00"/>
    </tripinfo>
    <tripinfo id="141" depart="141.00" departLane="-586354143_0" departPos="4.60" departSpeed="0.00" departDelay="0.00" arrival="195.00" arrivalLane="184736575#1_0" arrivalPos="30.04" arrivalSpeed="12.62" duration="54.00" routeLength="643.14" waitingTime="0.00" waitingCount="0" stopTime="0.00" timeLoss="11.55" rerouteNo="1" devices="tripinfo_141 routing_141 emissions_141" vType="thesis_car" speedFactor="1.16" vaporized="">
        <emissions CO_abs="2824.30" CO2_abs="197651.83" HC_abs="17.25" PMx_abs="3.45" NOx_abs="79.46" fuel_abs="63041.78" electricity_abs="0.00"/>
    </tripinfo>
    <tripinfo id="16" depart="16.00" departLane="-174398025#0_1" departPos="4.60" departSpeed="0.00" departDelay="0.00" arrival="197.00" arrivalLane="-28553756_0" arrivalPos="75.90" arrivalSpeed="11.39" duration="181.00" routeLength="2253.08" waitingTime="2.00" waitingCount="1" stopTime="0.00" timeLoss="41.94" rerouteNo="1" devices="tripinfo_16 routing_16 emissions_16" vType="thesis_car" speedFactor="0.88" vaporized="">
        <emissions CO_abs="10333.21" CO2_abs="687221.39" HC_abs="63.02" PMx_abs="12.55" NOx_abs="275.05" fuel_abs="219192.04" electricity_abs="0.00"/>
    </tripinfo>
    <tripinfo id="75" depart="75.00" departLane="842050932_0" departPos="4.60" departSpeed="0.00" departDelay="0.00" arrival="198.00" arrivalLane="96487801#3_0" arrivalPos="9.40" arrivalSpeed="7.74" duration="123.00" routeLength="1179.63" waitingTime="21.00" waitingCount="1" stopTime="0.00" timeLoss="45.58" rerouteNo="1" devices="tripinfo_75 routing_75 emissions_75" vType="thesis_car" speedFactor="0.98" vaporized="">
        <emissions CO_abs="10428.04" CO2_abs="469442.18" HC_abs="58.59" PMx_abs="9.37" NOx_abs="196.68" fuel_abs="149731.45" electricity_abs="0.00"/>
    </tripinfo>
    <tripinfo id="106" depart="106.00" departLane="28996820#0_0" departPos="4.60" departSpeed="0.00" departDelay="0.00" arrival="199.00" arrivalLane="184852741#1_0" arrivalPos="46.05" arrivalSpeed="13.08" duration="93.00" routeLength="1097.47" waitingTime="7.00" waitingCount="1" stopTime="0.00" timeLoss="31.00" rerouteNo="1" devices="tripinfo_106 routing_106 emissions_106" vType="thesis_car" speedFactor="1.01" vaporized="">
        <emissions CO_abs="6698.44" CO2_abs="386092.18" HC_abs="39.39" PMx_abs="7.32" NOx_abs="156.73" fuel_abs="123145.86" electricity_abs="0.00"/>
    </tripinfo>
    <tripinfo id="8" depart="8.00" departLane="-745722762#0_0" departPos="4.60" departSpeed="0.00" departDelay="0.00" arrival="212.00" arrivalLane="-23296777#3_0" arrivalPos="19.93" arrivalSpeed="10.38" duration="204.00" routeLength="2316.46" waitingTime="19.00" waitingCount="3" stopTime="0.00" timeLoss="74.38" rerouteNo="1" devices="tripinfo_8 routing_8 emissions_8" vType="thesis_car" speedFactor="0.94" vaporized="">
        <emissions CO_abs="16194.49" CO2_abs="868950.03" HC_abs="93.89" PMx_abs="17.34" NOx_abs="360.59" fuel_abs="277155.07" electricity_abs="0.00"/>
    </tripinfo>
    <tripinfo id="154" depart="158.00" departLane="183688028#9_0" departPos="4.60" departSpeed="0.00" departDelay="4.00" arrival="216.00" arrivalLane="-28554097#0_0" arrivalPos="41.86" arrivalSpeed="14.43" duration="58.00" routeLength="566.34" waitingTime="0.00" waitingCount="0" stopTime="0.00" timeLoss="17.63" rerouteNo="1" devices="tripinfo_154 routing_154 emissions_154" vType="thesis_car" speedFactor="1.06" vaporized="">
        <emissions CO_abs="3809.31" CO2_abs="215601.07" HC_abs="22.31" PMx_abs="4.05" NOx_abs="89.69" fuel_abs="68766.86" electricity_abs="0.00"/>
    </tripinfo>
    <tripinfo id="18" depart="18.00" departLane="28539454_0" departPos="4.60" departSpeed="0.00" departDelay="0.00" arrival="220.00" arrivalLane="-744999975#1_0" arrivalPos="46.83" arrivalSpeed="7.43" duration="202.00" routeLength="2202.39" waitingTime="27.00" waitingCount="2" stopTime="0.00" timeLoss="67.04" rerouteNo="1" devices="tripinfo_18 routing_18 emissions_18" vType="thesis_car" speedFactor="0.94" vaporized="">
        <emissions CO_abs="14777.68" CO2_abs="749992.92" HC_abs="84.94" PMx_abs="14.51" NOx_abs="308.43" fuel_abs="239214.35" electricity_abs="0.00"/>
    </tripinfo>
    <tripinfo id="118" depart="118.00" departLane="453672430_0" departPos="4.60" departSpeed="0.00" departDelay="0.00" arrival="220.00" arrivalLane="705076645_0" arrivalPos="48.08" arrivalSpeed="21.48" duration="102.00" routeLength="1573.03" waitingTime="0.00" waitingCount="0" stopTime="0.00" timeLoss="23.77" rerouteNo="1" devices="tripinfo_118 routing_118 emissions_118" vType="thesis_car" speedFactor="0.99" vaporized="">
        <emissions CO_abs="8451.34" CO2_abs="553972.93" HC_abs="51.58" PMx_abs="11.35" NOx_abs="229.72" fuel_abs="176690.56" electricity_abs="0.00"/>
    </tripinfo>
    <tripinfo id="150" depart="150.00" departLane="-28995853#1_0" departPos="4.60" departSpeed="0.00" departDelay="0.00" arrival="221.00" arrivalLane="-1072176585_0" arrivalPos="24.93" arrivalSpeed="12.89" duration="71.00" routeLength="668.12" waitingTime="0.00" waitingCount="0" stopTime="0.00" timeLoss="16.64" rerouteNo="1" devices="tripinfo_150 routing_150 emissions_150" vType="thesis_car" speedFactor="0.96" vaporized="">
        <emissions CO_abs="4330.93" CO2_abs="259668.55" HC_abs="25.75" PMx_abs="4.79" NOx_abs="107.96" fuel_abs="82822.27" electricity_abs="0.00"/>
    </tripinfo>
    <tripinfo id="3" depart="3.00" departLane="-28996941_0" departPos="4.60" departSpeed="0.00" departDelay="0.00" arrival="222.00" arrivalLane="1302514926_0" arrivalPos="45.95" arrivalSpeed="14.70" duration="219.00" routeLength="2170.51" waitingTime="44.00" waitingCount="1" stopTime="0.00" timeLoss="95.34" rerouteNo="1" devices="tripinfo_3 routing_3 emissions_3" vType="thesis_car" speedFactor="1.08" vaporized="">
        <emissions CO_abs="20189.85" CO2_abs="893599.99" HC_abs="112.81" PMx_abs="18.22" NOx_abs="372.12" fuel_abs="285019.17" electricity_abs="0.00"/>
    </tripinfo>
    <tripinfo id="188" depart="188.00" departLane="987633851_0" departPos="4.60" departSpeed="0.00" departDelay="0.00" arrival="222.00" arrivalLane="-586354144#0_0" arrivalPos="11.05" arrivalSpeed="8.67" duration="34.00" routeLength="321.80" waitingTime="0.00" waitingCount="0" stopTime="0.00" timeLoss="8.83" rerouteNo="1" devices="tripinfo_188 routing_188 emissions_188" vType="thesis_car" speedFactor="0.97" vaporized="">
        <emissions CO_abs="1973.85" CO2_abs="112272.23" HC_abs="11.57" PMx_abs="1.99" NOx_abs="46.04" fuel_abs="35809.82" electricity_abs="0.00"/>
    </tripinfo>
    <tripinfo id="126" depart="126.00" departLane="894940513_0" departPos="4.60" departSpeed="0.00" departDelay="0.00" arrival="224.00" arrivalLane="-28996500#0_0" arrivalPos="63.26" arrivalSpeed="13.52" duration="98.00" routeLength="944.30" waitingTime="0.00" waitingCount="0" stopTime="0.00" timeLoss="21.22" rerouteNo="1" devices="tripinfo_126 routing_126 emissions_126" vType="thesis_car" speedFactor="1.03" vaporized="">
        <emissions CO_abs="5468.54" CO2_abs="332633.00" HC_abs="32.44" PMx_abs="5.92" NOx_abs="136.48" fuel_abs="106094.75" electricity_abs="0.00"/>
    </tripinfo>
    <tripinfo id="170" depart="170.00" departLane="23296744#0_0" departPos="4.60" departSpeed="0.00" departDelay="0.00" arrival="226.00" arrivalLane="-23296749_0" arrivalPos="87.78" arrivalSpeed="14.96" duration="56.00" routeLength="559.26" waitingTime="0.00" waitingCount="0" stopTime="0.00" timeLoss="13.08" rerouteNo="1" devices="tripinfo_170 routing_170 emissions_170" vType="thesis_car" speedFactor="1.09" vaporized="">
        <emissions CO_abs="3703.55" CO2_abs="231639.14" HC_abs="22.16" PMx_abs="4.19" NOx_abs="95.37" fuel_abs="73882.18" electricity_abs="0.00"/>
    </tripinfo>
    <tripinfo id="148" depart="148.00" departLane="491608507_0" departPos="4.60" departSpeed="0.00" departDelay="0.00" arrival="227.00" arrivalLane="29000484#1_0" arrivalPos="103.75" arrivalSpeed="12.61" duration="79.00" routeLength="665.64" waitingTime="0.00" waitingCount="0" stopTime="0.00" timeLoss="17.56" rerouteNo="1" devices="tripinfo_148 routing_148 emissions_148" vType="thesis_car" speedFactor="0.97" vaporized="">
        <emissions CO_abs="4611.40" CO2_abs="249703.71" HC_abs="26.79" PMx_abs="4.48" NOx_abs="103.37" fuel_abs="79644.35" electricity_abs="0.00"/>
    </tripinfo>