<?xml version="1.0" encoding="UTF-8"?>

<!-- generated on 2026-02-07T14:52:34.506377+08:00 by Eclipse SUMO GUI 1.25.0
<sumoConfiguration xmlns:xsi="http://www.w3.org/2001/XMLSchema-instance" xsi:noNamespaceSchemaLocation="http://sumo.dlr.de/xsd/sumoConfiguration.xsd">

    <input>
        <net-file value="c:\Users\otaku\Documents\Thesis\apriori_civiq\scenarios/bgc_full/final_map.net.xml"/>
        <route-files value="c:\Users\otaku\Documents\Thesis\apriori_civiq\scenarios/bgc_full/trips_high.xml"/>
        <additional-files value="c:\Users\otaku\Documents\Thesis\apriori_civiq\scenarios/bgc_full/osm.poly.xml.gz,c:\Users\otaku\Documents\Thesis\apriori_civiq\scenarios/bgc_full/output.add.xml,c:\Users\otaku\Documents\Thesis\apriori_civiq\scenarios/bgc_full/vtypes.add.xml"/>
    </input>

    <output>
        <summary-output value="c:\Users\otaku\Documents\Thesis\apriori_civiq\scenarios/bgc_full/data\data_selfish_high_summary.xml"/>
        <tripinfo-output value="c:\Users\otaku\Documents\Thesis\apriori_civiq\scenarios/bgc_full/data\data_selfish_high_tripinfo.xml"/>
        <statistic-output value="c:\Users\otaku\Documents\Thesis\apriori_civiq\scenarios/bgc_full/data\data_selfish_high_stats.xml"/>
    </output>

    <time>
        <step-length value="1.0"/>
    </time>

    <processing>
        <ignore-route-errors value="true"/>
        <time-to-teleport value="-1"/>
        <tls.actuated.jam-threshold value="30"/>
    </processing>

    <routing>
        <device.rerouting.adaptation-steps value="18"/>
        <device.rerouting.adaptation-interval value="10"/>
    </routing>

    <report>
        <verbose value="true"/>
        <duration-log.statistics value="true"/>
        <no-step-log value="true"/>
    </report>

    <emissions>
        <device.emissions.probability value="1.0"/>
    </emissions>

    <traci_server>
        <remote-port value="65184"/>
    </traci_server>

    <gui_only>
        <gui-settings-file value="c:\Users\otaku\Documents\Thesis\apriori_civiq\scenarios/bgc_full/osm.view.xml"/>
        <start value="true"/>
    </gui_only>

</sumoConfiguration>
-->

<tripinfos xmlns:xsi="http://www.w3.org/2001/XMLSchema-instance" xsi:noNamespaceSchemaLocation="http://sumo.dlr.de/xsd/tripinfo_file.xsd">
    <tripinfo id="3" depart="3.00" departLane="1292171266_0" departPos="4.60" departSpeed="0.00" departDelay="0.75" arrival="50.00" arrivalLane="-1278655004_0" arrivalPos="32.61" arrivalSpeed="5.50" duration="47.00" routeLength="260.60" waitingTime="0.00" waitingCount="0" stopTime="0.00" timeLoss="8.45" rerouteNo="1" devices="tripinfo_3 routing_3 emissions_3" vType="thesis_car" speedFactor="1.08" vaporized="">
        <emissions CO_abs="2881.36" CO2_abs="98615.50" HC_abs="15.37" PMx_abs="1.63" NOx_abs="40.34" fuel_abs="31454.75" electricity_abs="0.00"/>
    </tripinfo>
    <tripinfo id="26" depart="20.00" departLane="-28997018#3_0" departPos="4.60" departSpeed="0.00" departDelay="0.50" arrival="56.00" arrivalLane="-1278655004_0" arrivalPos="32.61" arrivalSpeed="4.77" duration="36.00" routeLength="279.63" waitingTime="0.00" waitingCount="0" stopTime="0.00" timeLoss="7.93" rerouteNo="1" devices="tripinfo_26 routing_26 emissions_26" vType="thesis_car" speedFactor="0.92" vaporized="">
        <emissions CO_abs="2050.55" CO2_abs="102675.46" HC_abs="11.71" PMx_abs="1.84" NOx_abs="42.56" fuel_abs="32748.99" electricity_abs="0.00"/>
    </tripinfo>
    <tripinfo id="41" depart="31.00" departLane="28553756_0" departPos="4.60" departSpeed="0.00" departDelay="0.25" arrival="60.00" arrivalLane="184736575#1_0" arrivalPos="30.04" arrivalSpeed="10.59" duration="29.00" routeLength="250.11" waitingTime="0.00" waitingCount="0" stopTime="0.00" timeLoss="8.60" rerouteNo="1" devices="tripinfo_41 routing_41 emissions_41" vType="thesis_car" speedFactor="0.96" vaporized="">
        <emissions CO_abs="2146.34" CO2_abs="116141.95" HC_abs="12.46" PMx_abs="2.22" NOx_abs="48.94" fuel_abs="37043.95" electricity_abs="0.00"/>
    </tripinfo>
    <tripinfo id="6" depart="5.00" departLane="-28996992#3_0" departPos="4.60" departSpeed="0.00" departDelay="0.50" arrival="71.00" arrivalLane="23370447_0" arrivalPos="236.11" arrivalSpeed="10.97" duration="66.00" routeLength="723.01" waitingTime="0.00" waitingCount="0" stopTime="0.00" timeLoss="12.67" rerouteNo="1" devices="tripinfo_6 routing_6 emissions_6" vType="thesis_car" speedFactor="1.05" vaporized="">
        <emissions CO_abs="2816.12" CO2_abs="202176.31" HC_abs="17.25" PMx_abs="3.20" NOx_abs="79.30" fuel_abs="64485.20" electricity_abs="0.00"/>
    </tripinfo>
    <tripinfo id="10" depart="8.00" departLane="622155128#0_0" departPos="4.60" departSpeed="0.00" departDelay="0.50" arrival="78.00" arrivalLane="27274182#0_0" arrivalPos="88.74" arrivalSpeed="4.79" duration="70.00" routeLength="1064.06" waitingTime="4.00" waitingCount="1" stopTime="0.00" timeLoss="20.96" rerouteNo="1" devices="tripinfo_10 routing_10 emissions_10" vType="thesis_car" speedFactor="1.09" vaporized="">
        <emissions CO_abs="6932.30" CO2_abs="349022.45" HC_abs="40.15" PMx_abs="7.70" NOx_abs="142.42" fuel_abs="111322.17" electricity_abs="0.00"/>
    </tripinfo>
    <tripinfo id="43" depart="33.00" departLane="-23296780#0_0" departPos="4.60" departSpeed="0.00" departDelay="0.75" arrival="88.00" arrivalLane="101476581_0" arrivalPos="7.35" arrivalSpeed="13.50" duration="55.00" routeLength="565.23" waitingTime="0.00" waitingCount="0" stopTime="0.00" timeLoss="10.87" rerouteNo="1" devices="tripinfo_43 routing_43 emissions_43" vType="thesis_car" speedFactor="1.04" vaporized="">
        <emissions CO_abs="2947.76" CO2_abs="190201.89" HC_abs="17.64" PMx_abs="3.24" NOx_abs="76.74" fuel_abs="60665.79" electricity_abs="0.00"/>
    </tripinfo>
    <tripinfo id="79" depart="60.00" departLane="184731538_0" departPos="4.60" departSpeed="0.00" departDelay="0.75" arrival="91.00" arrivalLane="-28553629_0" arrivalPos="86.21" arrivalSpeed="14.29" duration="31.00" routeLength="276.30" waitingTime="0.00" waitingCount="0" stopTime="0.00" timeLoss="11.60" rerouteNo="1" devices="tripinfo_79 routing_79 emissions_79" vType="thesis_car" speedFactor="1.09" vaporized="">
        <emissions CO_abs="2482.74" CO2_abs="131718.31" HC_abs="14.43" PMx_abs="2.60" NOx_abs="56.01" fuel_abs="42012.04" electricity_abs="0.00"/>
    </tripinfo>
    <tripinfo id="16" depart="12.00" departLane="-28997018#3_0" departPos="4.60" departSpeed="0.00" departDelay="0.00" arrival="95.00" arrivalLane="-28996932#2_0" arrivalPos="24.69" arrivalSpeed="11.44" duration="83.00" routeLength="616.77" waitingTime="0.00" waitingCount="0" stopTime="0.00" timeLoss="15.44" rerouteNo="1" devices="tripinfo_16 routing_16 emissions_16" vType="thesis_car" speedFactor="0.88" vaporized="">
        <emissions CO_abs="4660.03" CO2_abs="224220.69" HC_abs="26.36" PMx_abs="3.84" NOx_abs="91.58" fuel_abs="71516.95" electricity_abs="0.00"/>
    </tripinfo>
    <tripinfo id="93" depart="70.00" departLane="-28996944_0" departPos="4.60" departSpeed="0.00" departDelay="0.25" arrival="96.00" arrivalLane="28996944_0" arrivalPos="114.98" arrivalSpeed="12.30" duration="26.00" routeLength="230.04" waitingTime="0.00" waitingCount="0" stopTime="0.00" timeLoss="6.98" rerouteNo="0" devices="tripinfo_93 routing_93 emissions_93" vType="thesis_car" speedFactor="0.92" vaporized="">
        <emissions CO_abs="1748.12" CO2_abs="96123.58" HC_abs="10.22" PMx_abs="1.77" NOx_abs="39.98" fuel_abs="30659.08" electricity_abs="0.00"/>
    </tripinfo>
    <tripinfo id="17" depart="13.00" departLane="-23296775_0" departPos="4.60" departSpeed="0.00" departDelay="0.25" arrival="105.00" arrivalLane="-28996500#0_0" arrivalPos="63.26" arrivalSpeed="13.07" duration="92.00" routeLength="499.90" waitingTime="0.00" waitingCount="0" stopTime="0.00" timeLoss="12.65" rerouteNo="1" devices="tripinfo_17 routing_17 emissions_17" vType="thesis_car" speedFactor="0.94" vaporized="">
        <emissions CO_abs="5416.75" CO2_abs="189474.05" HC_abs="28.98" PMx_abs="3.15" NOx_abs="77.60" fuel_abs="60435.22" electricity_abs="0.00"/>
    </tripinfo>
    <tripinfo id="70" depart="53.00" departLane="-23296773#1_0" departPos="4.60" departSpeed="0.00" departDelay="0.50" arrival="121.00" arrivalLane="101476581_0" arrivalPos="7.35" arrivalSpeed="13.69" duration="68.00" routeLength="705.59" waitingTime="0.00" waitingCount="0" stopTime="0.00" timeLoss="11.08" rerouteNo="1" devices="tripinfo_70 routing_70 emissions_70" vType="thesis_car" speedFactor="1.02" vaporized="">
        <emissions CO_abs="3147.12" CO2_abs="211096.01" HC_abs="19.12" PMx_abs="3.51" NOx_abs="84.66" fuel_abs="67330.11" electricity_abs="0.00"/>
    </tripinfo>
    <tripinfo id="89" depart="67.00" departLane="-29000484#1_0" departPos="4.60" departSpeed="0.00" departDelay="0.25" arrival="124.00" arrivalLane="-23296745#0_0" arrivalPos="76.79" arrivalSpeed="13.52" duration="57.00" routeLength="579.98" waitingTime="0.00" waitingCount="0" stopTime="0.00" timeLoss="12.46" rerouteNo="1" devices="tripinfo_89 routing_89 emissions_89" vType="thesis_car" speedFactor="1.02" vaporized="">
        <emissions CO_abs="3010.37" CO2_abs="200465.86" HC_abs="18.34" PMx_abs="3.48" NOx_abs="81.34" fuel_abs="63939.43" electricity_abs="0.00"/>
    </tripinfo>
    <tripinfo id="142" depart="107.00" departLane="1072138522_0" departPos="4.60" departSpeed="0.00" departDelay="0.50" arrival="124.00" arrivalLane="23296774_0" arrivalPos="76.38" arrivalSpeed="12.31" duration="17.00" routeLength="137.45" waitingTime="0.00" waitingCount="0" stopTime="0.00" timeLoss="5.17" rerouteNo="0" devices="tripinfo_142 routing_142 emissions_142" vType="thesis_car" speedFactor="0.94" vaporized="">
        <emissions CO_abs="1423.92" CO2_abs="70073.97" HC_abs="8.11" PMx_abs="1.36" NOx_abs="29.73" fuel_abs="22350.43" electricity_abs="0.00"/>
    </tripinfo>
    <tripinfo id="148" depart="111.00" departLane="1278655004_0" departPos="4.60" departSpeed="0.00" departDelay="0.00" arrival="133.00" arrivalLane="-28996992#2_0" arrivalPos="33.23" arrivalSpeed="12.90" duration="22.00" routeLength="147.67" waitingTime="0.00" waitingCount="0" stopTime="0.00" timeLoss="6.02" rerouteNo="1" devices="tripinfo_148 routing_148 emissions_148" vType="thesis_car" speedFactor="0.97" vaporized="">
        <emissions CO_abs="1835.56" CO2_abs="85111.58" HC_abs="10.36" PMx_abs="1.60" NOx_abs="35.83" fuel_abs="27146.88" electricity_abs="0.00"/>
    </tripinfo>
    <tripinfo id="85" depart="64.00" departLane="894940513_0" departPos="4.60" departSpeed="0.00" departDelay="0.25" arrival="140.00" arrivalLane="23296775_0" arrivalPos="4.83" arrivalSpeed="6.24" duration="76.00" routeLength="545.58" waitingTime="0.00" waitingCount="0" stopTime="0.00" timeLoss="10.01" rerouteNo="1" devices="tripinfo_85 routing_85 emissions_85" vType="thesis_car" speedFactor="0.98" vaporized="">
        <emissions CO_abs="3320.58" CO2_abs="149398.09" HC_abs="18.49" PMx_abs="2.13" NOx_abs="58.74" fuel_abs="47652.28" electricity_abs="0.00"/>
    </tripinfo>
    <tripinfo id="159" depart="120.00" departLane="28553639#0_0" departPos="4.60" departSpeed="0.00" departDelay="0.75" arrival="140.00" arrivalLane="-28553644#0_0" arrivalPos="48.69" arrivalSpeed="15.79" duration="20.00" routeLength="161.24" waitingTime="0.00" waitingCount="0" stopTime="0.00" timeLoss="8.02" rerouteNo="1" devices="tripinfo_159 routing_159 emissions_159" vType="thesis_car" speedFactor="1.14" vaporized="">
        <emissions CO_abs="1854.94" CO2_abs="97081.19" HC_abs="10.75" PMx_abs="1.93" NOx_abs="41.43" fuel_abs="30964.40" electricity_abs="0.00"/>
    </tripinfo>
    <tripinfo id="71" depart="54.00" departLane="1302514929#0_0" departPos="4.60" departSpeed="0.00" departDelay="0.75" arrival="143.00" arrivalLane="126310262_1" arrivalPos="21.28" arrivalSpeed="13.27" duration="89.00" routeLength="980.96" waitingTime="0.00" waitingCount="0" stopTime="0.00" timeLoss="15.73" rerouteNo="1" devices="tripinfo_71 routing_71 emissions_71" vType="thesis_car" speedFactor="0.97" vaporized="">
        <emissions CO_abs="3304.69" CO2_abs="253243.90" HC_abs="20.56" PMx_abs="3.88" NOx_abs="98.46" fuel_abs="80773.51" electricity_abs="0.00"/>
    </tripinfo>
    <tripinfo id="22" depart="17.00" departLane="-28553959#9_0" departPos="4.60" departSpeed="0.00" departDelay="0.50" arrival="150.00" arrivalLane="-747447017#2_1" arrivalPos="14.39" arrivalSpeed="12.76" duration="133.00" routeLength="1740.95" waitingTime="11.00" waitingCount="1" stopTime="0.00" timeLoss="42.27" rerouteNo="1" devices="tripinfo_22 routing_22 emissions_22" vType="thesis_car" speedFactor="0.97" vaporized="">
        <emissions CO_abs="11202.47" CO2_abs="645976.50" HC_abs="66.47" PMx_abs="13.09" NOx_abs="267.67" fuel_abs="206036.27" electricity_abs="0.00"/>
    </tripinfo>
    <tripinfo id="78" depart="59.00" departLane="622155128#0_0" departPos="4.60" departSpeed="0.00" departDelay="0.50" arrival="150.00" arrivalLane="-27274183#3_0" arrivalPos="16.03" arrivalSpeed="13.43" duration="91.00" routeLength="1294.30" waitingTime="0.00" waitingCount="0" stopTime="0.00" timeLoss="19.84" rerouteNo="1" devices="tripinfo_78 routing_78 emissions_78" vType="thesis_car" speedFactor="1.01" vaporized="">
        <emissions CO_abs="7618.88" CO2_abs="461246.08" HC_abs="45.82" PMx_abs="9.62" NOx_abs="190.83" fuel_abs="147115.52" electricity_abs="0.00"/>
    </tripinfo>
    <tripinfo id="146" depart="110.00" departLane="28553620#0_0" departPos="4.60" departSpeed="0.00" departDelay="0.50" arrival="154.00" arrivalLane="-440588496#6_1" arrivalPos="23.07" arrivalSpeed="9.76" duration="44.00" routeLength="386.31" waitingTime="0.00" waitingCount="0" stopTime="0.00" timeLoss="8.78" rerouteNo="1" devices="tripinfo_146 routing_146 emissions_146" vType="thesis_car" speedFactor="0.89" vaporized="">
        <emissions CO_abs="2366.98" CO2_abs="136324.23" HC_abs="13.92" PMx_abs="2.26" NOx_abs="55.09" fuel_abs="43481.48" electricity_abs="0.00"/>
    </tripinfo>
    <tripinfo id="36" depart="27.00" departLane="984799393_0" departPos="4.60" departSpeed="0.00" departDelay="0.00" arrival="155.00" arrivalLane="1382245206#8_1" arrivalPos="26.14" arrivalSpeed="7.36" duration="128.00" routeLength="859.05" waitingTime="30.00" waitingCount="1" stopTime="0.00" timeLoss="44.93" rerouteNo="1" devices="tripinfo_36 routing_36 emissions_36" vType="thesis_car" speedFactor="0.97" vaporized="">
        <emissions CO_abs="9305.11" CO2_abs="326534.82" HC_abs="49.90" PMx_abs="6.03" NOx_abs="135.89" fuel_abs="104151.97" electricity_abs="0.00"/>
    </tripinfo>
    <tripinfo id="14" depart="11.00" departLane="561395729#0_0" departPos="4.60" departSpeed="0.00" departDelay="0.50" arrival="158.00" arrivalLane="27494654_0" arrivalPos="1.88" arrivalSpeed="10.89" duration="147.00" routeLength="1331.10" waitingTime="0.00" waitingCount="0" stopTime="0.00" timeLoss="24.51" rerouteNo="1" devices="tripinfo_14 routing_14 emissions_14" vType="thesis_car" speedFactor="0.99" vaporized="">
        <emissions CO_abs="6993.65" CO2_abs="415234.08" HC_abs="41.32" PMx_abs="6.77" NOx_abs="166.87" fuel_abs="132441.55" electricity_abs="0.00"/>
    </tripinfo>
    <tripinfo id="27" depart="21.00" departLane="-706539634#7_0" departPos="4.60" departSpeed="0.00" departDelay="0.75" arrival="162.00" arrivalLane="-28995751#0_0" arrivalPos="45.49" arrivalSpeed="12.26" duration="141.00" routeLength="1940.96" waitingTime="0.00" waitingCount="0" stopTime="0.00" timeLoss="29.55" rerouteNo="1" devices="tripinfo_27 routing_27 emissions_27" vType="thesis_car" speedFactor="0.95" vaporized="">
        <emissions CO_abs="8001.74" CO2_abs="560757.31" HC_abs="49.23" PMx_abs="10.47" NOx_abs="225.16" fuel_abs="178855.17" electricity_abs="0.00"/>
    </tripinfo>
    <tripinfo id="28" depart="21.00" departLane="-28996951_0" departPos="4.60" departSpeed="0.00" departDelay="0.00" arrival="166.00" arrivalLane="747953561_0" arrivalPos="15.83" arrivalSpeed="20.63" duration="145.00" routeLength="1237.78" waitingTime="30.00" waitingCount="1" stopTime="0.00" timeLoss="69.44" rerouteNo="1" devices="tripinfo_28 routing_28 emissions_28" vType="thesis_car" speedFactor="1.13" vaporized="">
        <emissions CO_abs="14521.44" CO2_abs="593413.91" HC_abs="80.13" PMx_abs="12.39" NOx_abs="251.22" fuel_abs="189273.27" electricity_abs="0.00"/>
    </tripinfo>
    <tripinfo id="77" depart="58.00" departLane="987614114#1_0" departPos="4.60" departSpeed="0.00" departDelay="0.25" arrival="166.00" arrivalLane="568142849#0_0" arrivalPos="21.42" arrivalSpeed="5.21" duration="108.00" routeLength="986.17" waitingTime="0.00" waitingCount="0" stopTime="0.00" timeLoss="20.92" rerouteNo="1" devices="tripinfo_77 routing_77 emissions_77" vType="thesis_car" speedFactor="0.98" vaporized="">
        <emissions CO_abs="5134.92" CO2_abs="291612.72" HC_abs="29.88" PMx_abs="4.79" NOx_abs="116.72" fuel_abs="93011.85" electricity_abs="0.00"/>
    </tripinfo>
    <tripinfo id="136" depart="102.00" departLane="902908203_0" departPos="4.60" departSpeed="0.00" departDelay="0.00" arrival="167.00" arrivalLane="184736575#1_0" arrivalPos="30.04" arrivalSpeed="12.66" duration="65.00" routeLength="665.16" waitingTime="3.00" waitingCount="1" stopTime="0.00" timeLoss="19.30" rerouteNo="1" devices="tripinfo_136 routing_136 emissions_136" vType="thesis_car" speedFactor="1.12" vaporized="">
        <emissions CO_abs="4095.71" CO2_abs="231700.66" HC_abs="23.96" PMx_abs="4.25" NOx_abs="95.30" fuel_abs="73902.02" electricity_abs="0.00"/>
    </tripinfo>
    <tripinfo id="101" depart="76.00" departLane="1057272192#1_0" departPos="4.60" departSpeed="0.00" departDelay="0.25" arrival="172.00" arrivalLane="-27274180_0" arrivalPos="4.34" arrivalSpeed="7.72" duration="96.00" routeLength="726.35" waitingTime="6.00" waitingCount="1" stopTime="0.00" timeLoss="30.39" rerouteNo="1" devices="tripinfo_101 routing_101 emissions_101" vType="thesis_car" speedFactor="0.96" vaporized="">
        <emissions CO_abs="6397.86" CO2_abs="285006.56" HC_abs="35.80" PMx_abs="5.26" NOx_abs="118.83" fuel_abs="90904.96" electricity_abs="0.00"/>
    </tripinfo>
    <tripinfo id="109" depart="82.00" departLane="184852740#0_2" departPos="4.60" departSpeed="0.00" departDelay="0.25" arrival="172.00" arrivalLane="744944963#1_0" arrivalPos="50.54" arrivalSpeed="20.44" duration="90.00" routeLength="900.60" waitingTime="9.00" waitingCount="1" stopTime="0.00" timeLoss="31.76" rerouteNo="1" devices="tripinfo_109 routing_109 emissions_109" vType="thesis_car" speedFactor="0.96" vaporized="">
        <emissions CO_abs="7203.95" CO2_abs="370851.55" HC_abs="41.38" PMx_abs="7.23" NOx_abs="154.64" fuel_abs="118284.87" electricity_abs="0.00"/>
    </tripinfo>
    <tripinfo id="4" depart="3.00" departLane="-28996987#4_0" departPos="4.60" departSpeed="0.00" departDelay="0.00" arrival="182.00" arrivalLane="1362795132#4_0" arrivalPos="0.20" arrivalSpeed="7.92" duration="179.00" routeLength="2433.24" waitingTime="0.00" waitingCount="0" stopTime="0.00" timeLoss="39.29" rerouteNo="1" devices="tripinfo_4 routing_4 emissions_4" vType="thesis_car" speedFactor="1.03" vaporized="">
        <emissions CO_abs="12933.65" CO2_abs="850974.87" HC_abs="79.10" PMx_abs="17.08" NOx_abs="353.22" fuel_abs="271420.00" electricity_abs="0.00"/>
    </tripinfo>
    <tripinfo id="181" depart="136.00" departLane="23296751#1_0" departPos="4.60" departSpeed="0.00" departDelay="0.25" arrival="185.00" arrivalLane="-23296754#0_0" arrivalPos="10.10" arrivalSpeed="8.94" duration="49.00" routeLength="401.75" waitingTime="0.00" waitingCount="0" stopTime="0.00" timeLoss="10.35" rerouteNo="1" devices="tripinfo_181 routing_181 emissions_181" vType="thesis_car" speedFactor="1.03" vaporized="">
        <emissions CO_abs="2913.99" CO2_abs="153653.37" HC_abs="16.85" PMx_abs="2.72" NOx_abs="63.54" fuel_abs="49008.66" electricity_abs="0.00"/>
    </tripinfo>
    <tripinfo id="212" depart="159.00" departLane="4940273#1_0" departPos="4.60" departSpeed="0.00" departDelay="0.00" arrival="186.00" arrivalLane="814837420#0_2" arrivalPos="11.91" arrivalSpeed="13.89" duration="27.00" routeLength="225.30" waitingTime="0.00" waitingCount="0" stopTime="0.00" timeLoss="8.87" rerouteNo="1" devices="tripinfo_212 routing_212 emissions_212" vType="thesis_car" speedFactor="1.00" vaporized="">
        <emissions CO_abs="2198.75" CO2_abs="116199.51" HC_abs="12.73" PMx_abs="2.23" NOx_abs="49.09" fuel_abs="37062.33" electricity_abs="0.00"/>
    </tripinfo>
    <tripinfo id="177" depart="133.00" departLane="-354718285_0" departPos="4.60" departSpeed="0.00" departDelay="0.25" arrival="187.00" arrivalLane="28539702#5_0" arrivalPos="97.63" arrivalSpeed="13.23" duration="54.00" routeLength="564.34" waitingTime="0.00" waitingCount="0" stopTime="0.00" timeLoss="11.98" rerouteNo="1" devices="tripinfo_177 routing_177 emissions_177" vType="thesis_car" speedFactor="1.03" vaporized="">
        <emissions CO_abs="3151.77" CO2_abs="194111.70" HC_abs="18.79" PMx_abs="3.53" NOx_abs="79.94" fuel_abs="61912.68" electricity_abs="0.00"/>
    </tripinfo>
    <tripinfo id="224" depart="168.00" departLane="-4940135_0" departPos="4.60" departSpeed="0.00" departDelay="0.00" arrival="187.00" arrivalLane="4940135_0" arrivalPos="61.96" arrivalSpeed="10.16" duration="19.00" routeLength="123.99" waitingTime="0.00" waitingCount="0" stopTime="0.00" timeLoss="6.21" rerouteNo="0" devices="tripinfo_224 routing_224 emissions_224" vType="thesis_car" speedFactor="1.02" vaporized="">
        <emissions CO_abs="1448.02" CO2_abs="62586.85" HC_abs="8.07" PMx_abs="1.25" NOx_abs="26.91" fuel_abs="19962.45" electricity_abs="0.00"/>
    </tripinfo>
    <tripinfo id="53" depart="40.00" departLane="744615658#1_3" departPos="4.60" departSpeed="0.00" departDelay="0.25" arrival="190.00" arrivalLane="749514001#1_0" arrivalPos="18.65" arrivalSpeed="9.06" duration="150.00" routeLength="1576.18" waitingTime="31.00" waitingCount="2" stopTime="0.00" timeLoss="67.61" rerouteNo="1" devices="tripinfo_53 routing_53 emissions_53" vType="thesis_car" speedFactor="1.10" vaporized="">
        <emissions CO_abs="12956.33" CO2_abs="598912.04" HC_abs="73.00" PMx_abs="11.97" NOx_abs="248.27" fuel_abs="191026.59" electricity_abs="0.00"/>
    </tripinfo>
    <tripinfo id="54" depart="41.00" departLane="-184852743#0_1" departPos="4.60" departSpeed="0.00" departDelay="0.50" arrival="190.00" arrivalLane="32906098#1_0" arrivalPos="105.81" arrivalSpeed="13.37" duration="149.00" routeLength="1121.61" waitingTime="72.00" waitingCount="2" stopTime="0.00" timeLoss="94.76" rerouteNo="1" devices="tripinfo_54 routing_54 emissions_54" vType="thesis_car" speedFactor="1.00" vaporized="">
        <emissions CO_abs="17969.50" CO2_abs="567426.19" HC_abs="95.41" PMx_abs="12.53" NOx_abs="243.20" fuel_abs="180986.29" electricity_abs="0.00"/>
    </tripinfo>
    <tripinfo id="126" depart="95.00" departLane="-747447018#0_1" departPos="4.60" departSpeed="0.00" departDelay="0.50" arrival="190.00" arrivalLane="747228976#1_0" arrivalPos="59.33" arrivalSpeed="22.21" duration="95.00" routeLength="860.91" waitingTime="12.00" waitingCount="2" stopTime="0.00" timeLoss="50.95" rerouteNo="1" devices="tripinfo_126 routing_126 emissions_126" vType="thesis_car" speedFactor="1.03" vaporized="">
        <emissions CO_abs="9862.22" CO2_abs="451428.14" HC_abs="55.54" PMx_abs="9.43" NOx_abs="193.09" fuel_abs="143985.07" electricity_abs="0.00"/>
    </tripinfo>
    <tripinfo id="134" depart="101.00" departLane="894940513_0" departPos="4.60" departSpeed="0.00" departDelay="0.50" arrival="192.00" arrivalLane="-28996500#0_0" arrivalPos="63.26" arrivalSpeed="16.07" duration="91.00" routeLength="944.30" waitingTime="0.00" waitingCount="0" stopTime="0.00" timeLoss="26.51" rerouteNo="1" devices="tripinfo_134 routing_134 emissions_134" vType="thesis_car" speedFactor="1.23" vaporized="">
        <emissions CO_abs="5911.03" CO2_abs="371683.67" HC_abs="35.36" PMx_abs="6.85" NOx_abs="153.54" fuel_abs="118549.77" electricity_abs="0.00"/>
    </tripinfo>
    <tripinfo id="204" depart="153.00" departLane="987633851_0" departPos="4.60" departSpeed="0.00" departDelay="0.00" arrival="192.00" arrivalLane="-586354142_0" arrivalPos="20.82" arrivalSpeed="8.99" duration="39.00" routeLength="467.35" waitingTime="0.00" waitingCount="0" stopTime="0.00" timeLoss="6.43" rerouteNo="1" devices="tripinfo_204 routing_204 emissions_204" vType="thesis_car" speedFactor="1.07" vaporized="">
        <emissions CO_abs="1456.04" CO2_abs="120327.60" HC_abs="9.26" PMx_abs="1.85" NOx_abs="46.42" fuel_abs="38379.08" electricity_abs="0.00"/>
    </tripinfo>
    <tripinfo id="19" depart="15.00" departLane="1057272193#0_1" departPos="0.81" departSpeed="0.00" departDelay="0.75" arrival="193.00" arrivalLane="-28553616_0" arrivalPos="78.62" arrivalSpeed="15.84" duration="178.00" routeLength="3266.02" waitingTime="0.00" waitingCount="0" stopTime="0.00" timeLoss="47.25" rerouteNo="1" devices="tripinfo_19 routing_19 emissions_19" vType="thesis_car" speedFactor="1.16" vaporized="">
        <emissions CO_abs="18546.16" CO2_abs="1117331.84" HC_abs="111.96" PMx_abs="24.70" NOx_abs="460.65" fuel_abs="356374.93" electricity_abs="0.00"/>
    </tripinfo>
    <tripinfo id="182" depart="137.00" departLane="-29000484#1_0" departPos="4.60" departSpeed="0.00" departDelay="0.50" arrival="193.00" arrivalLane="28996500#2_0" arrivalPos="77.46" arrivalSpeed="14.24" duration="56.00" routeLength="521.45" waitingTime="0.00" waitingCount="0" stopTime="0.00" timeLoss="15.84" rerouteNo="1" devices="tripinfo_182 routing_182 emissions_182" vType="thesis_car" speedFactor="1.03" vaporized="">
        <emissions CO_abs="3844.10" CO2_abs="208723.19" HC_abs="22.28" PMx_abs="3.99" NOx_abs="87.48" fuel_abs="66573.13" electricity_abs="0.00"/>
    </tripinfo>
    <tripinfo id="83" depart="63.00" departLane="842050932_0" departPos="4.60" departSpeed="0.00" departDelay="0.75" arrival="199.00" arrivalLane="96487803#0_0" arrivalPos="59.11" arrivalSpeed="8.01" duration="136.00" routeLength="1191.25" waitingTime="26.00" waitingCount="2" stopTime="0.00" timeLoss="55.73" rerouteNo="1" devices="tripinfo_83 routing_83 emissions_83" vType="thesis_car" speedFactor="0.97" vaporized="">
        <emissions CO_abs="11555.41" CO2_abs="490891.76" HC_abs="64.21" PMx_abs="9.74" NOx_abs="205.46" fuel_abs="156573.40" electricity_abs="0.00"/>
    </tripinfo>
    <tripinfo id="33" depart="25.00" departLane="23370659#1_2" departPos="4.60" departSpeed="0.00" departDelay="0.25" arrival="202.00" arrivalLane="-28995669_0" arrivalPos="88.37" arrivalSpeed="15.21" duration="177.00" routeLength="1944.86" waitingTime="34.00" waitingCount="4" stopTime="0.00" timeLoss="86.86" rerouteNo="1" devices="tripinfo_33 routing_33 emissions_33" vType="thesis_car" speedFactor="1.17" vaporized="">
        <emissions CO_abs="17897.22" CO2_abs="814468.71" HC_abs="100.63" PMx_abs="17.05" NOx_abs="342.18" fuel_abs="259778.99" electricity_abs="0.00"/>
    </tripinfo>
    <tripinfo id="137" depart="103.00" departLane="770797808#0_0" departPos="4.60" departSpeed="0.00" departDelay="0.25" arrival="205.00" arrivalLane="-23296744#0_0" arrivalPos="44.75" arrivalSpeed="13.54" duration="102.00" routeLength="701.54" waitingTime="0.00" waitingCount="0" stopTime="0.00" timeLoss="17.31" rerouteNo="1" devices="tripinfo_137 routing_137 emissions_137" vType="thesis_car" speedFactor="1.02" vaporized="">
        <emissions CO_abs="5684.95" CO2_abs="244983.62" HC_abs="31.53" PMx_abs="4.25" NOx_abs="100.95" fuel_abs="78139.72" electricity_abs="0.00"/>
    </tripinfo>
    <tripinfo id="76" depart="57.00" departLane="-354718299#1_0" departPos="4.60" departSpeed="0.00" departDelay="0.00" arrival="207.00" arrivalLane="746791799#2_0" arrivalPos="21.89" arrivalSpeed="11.06" duration="150.00" routeLength="1803.88" waitingTime="22.00" waitingCount="1" stopTime="0.00" timeLoss="63.23" rerouteNo="1" devices="tripinfo_76 routing_76 emissions_76" vType="thesis_car" speedFactor="1.03" vaporized="">
        <emissions CO_abs="14795.66" CO2_abs="709573.41" HC_abs="84.42" PMx_abs="15.16" NOx_abs="298.82" fuel_abs="226321.41" electricity_abs="0.00"/>
    </tripinfo>
    <tripinfo id="97" depart="73.00" departLane="-226831899#2_0" departPos="4.60" departSpeed="0.00" departDelay="0.25" arrival="207.00" arrivalLane="1072192656_0" arrivalPos="27.23" arrivalSpeed="12.19" duration="134.00" routeLength="1108.92" waitingTime="0.00" waitingCount="0" stopTime="0.00" timeLoss="19.93" rerouteNo="1" devices="tripinfo_97 routing_97 emissions_97" vType="thesis_car" speedFactor="0.91" vaporized="">
        <emissions CO_abs="6411.53" CO2_abs="354823.72" HC_abs="37.29" PMx_abs="5.76" NOx_abs="142.85" fuel_abs="113173.56" electricity_abs="0.00"/>
    </tripinfo>
    <tripinfo id="51" depart="39.00" departLane="744620962#1_0" departPos="4.60" departSpeed="0.00" departDelay="0.75" arrival="209.00" arrivalLane="555335240#5_0" arrivalPos="40.67" arrivalSpeed="15.54" duration="170.00" routeLength="1942.61" waitingTime="36.00" waitingCount="2" stopTime="0.00" timeLoss="78.31" rerouteNo="1" devices="tripinfo_51 routing_51 emissions_51" vType="thesis_car" speedFactor="1.17" vaporized="">
        <emissions CO_abs="16790.98" CO2_abs="764844.03" HC_abs="94.49" PMx_abs="16.12" NOx_abs="322.37" fuel_abs="243950.79" electricity_abs="0.00"/>
    </tripinfo>
    <tripinfo id="157" depart="118.00" departLane="-23296751#2_0" departPos="4.60" departSpeed="0.00" departDelay="0.25" arrival="210.00" arrivalLane="145087237#1_0" arrivalPos="9.31" arrivalSpeed="14.91" duration="92.00" routeLength="892.40" waitingTime="0.00" waitingCount="0" stopTime="0.00" timeLoss="20.04" rerouteNo="1" devices="tripinfo_157 routing_157 emissions_157" vType="thesis_car" speedFactor="1.08" vaporized="">
        <emissions CO_abs="5460.08" CO2_abs="333390.64" HC_abs="32.47" PMx_abs="5.97" NOx_abs="136.97" fuel_abs="106336.35" electricity_abs="0.00"/>
    </tripinfo>