<?xml version="1.0" encoding="UTF-8"?>

<!-- generated on 2026-01-14T13:51:05.343451+08:00 by Eclipse SUMO GUI 1.25.0
<sumoConfiguration xmlns:xsi="http://www.w3.org/2001/XMLSchema-instance" xsi:noNamespaceSchemaLocation="http://sumo.dlr.de/xsd/sumoConfiguration.xsd">

    <input>
        <net-file value="final_map.net.xml"/>
        <route-files value="trips_low.xml"/>
        <additional-files value="osm.poly.xml.gz,output.add.xml,vtypes.add.xml"/>
    </input>

    <output>
        <summary-output value="data\data_selfish_low_summary.xml"/>
        <tripinfo-output value="data\data_selfish_low_tripinfo.xml"/>
        <statistic-output value="data\data_selfish_low_stats.xml"/>
    </output>

    <processing>
        <ignore-route-errors value="true"/>
        <time-to-teleport value="300"/>
        <tls.actuated.jam-threshold value="30"/>
    </processing>

    <routing>
        <device.rerouting.adaptation-steps value="18"/>
        <device.rerouting.adaptation-interval value="10"/>
    </routing>

    <report>
        <verbose value="true"/>
        <duration-log.statistics value="true"/>
        <no-step-log value="true"/>
    </report>

    <emissions>
        <device.emissions.probability value="1.0"/>
    </emissions>

    <gui_only>
        <gui-settings-file value="osm.view.xml"/>
    </gui_only>

</sumoConfiguration>
-->

<tripinfos xmlns:xsi="http://www.w3.org/2001/XMLSchema-instance" xsi:noNamespaceSchemaLocation="http://sumo.dlr.de/xsd/tripinfo_file.xsd">
    <tripinfo id="12" depart="24.00" departLane="23296741#0_0" departPos="4.60" departSpeed="0.00" departDelay="0.00" arrival="52.00" arrivalLane="896483082#1_0" arrivalPos="7.37" arrivalSpeed="11.11" duration="28.00" routeLength="261.74" waitingTime="0.00" waitingCount="0" stopTime="0.00" timeLoss="8.11" rerouteNo="1" devices="tripinfo_12 routing_12 emissions_12" vType="thesis_car" speedFactor="1.05" vaporized="">
        <emissions CO_abs="1885.61" CO2_abs="108306.56" HC_abs="11.10" PMx_abs="1.98" NOx_abs="44.97" fuel_abs="34544.85" electricity_abs="0.00"/>
    </tripinfo>
    <tripinfo id="32" depart="64.00" departLane="-215516157_0" departPos="4.60" departSpeed="0.00" departDelay="0.00" arrival="79.00" arrivalLane="-1281884999_0" arrivalPos="17.68" arrivalSpeed="13.96" duration="15.00" routeLength="99.54" waitingTime="0.00" waitingCount="0" stopTime="0.00" timeLoss="6.29" rerouteNo="1" devices="tripinfo_32 routing_32 emissions_32" vType="thesis_car" speedFactor="1.01" vaporized="">
        <emissions CO_abs="1575.17" CO2_abs="69002.77" HC_abs="8.81" PMx_abs="1.42" NOx_abs="29.86" fuel_abs="22008.78" electricity_abs="0.00"/>
    </tripinfo>
    <tripinfo id="15" depart="30.00" departLane="-28996951_0" departPos="4.60" departSpeed="0.00" departDelay="0.00" arrival="97.00" arrivalLane="-28996992#0_0" arrivalPos="47.42" arrivalSpeed="12.79" duration="67.00" routeLength="474.30" waitingTime="0.00" waitingCount="0" stopTime="0.00" timeLoss="13.07" rerouteNo="1" devices="tripinfo_15 routing_15 emissions_15" vType="thesis_car" speedFactor="0.93" vaporized="">
        <emissions CO_abs="3699.74" CO2_abs="172721.33" HC_abs="20.85" PMx_abs="3.13" NOx_abs="71.78" fuel_abs="55090.69" electricity_abs="0.00"/>
    </tripinfo>
    <tripinfo id="21" depart="42.00" departLane="28539908_0" departPos="4.60" departSpeed="0.00" departDelay="0.00" arrival="124.00" arrivalLane="267646774_0" arrivalPos="70.87" arrivalSpeed="13.47" duration="82.00" routeLength="994.64" waitingTime="0.00" waitingCount="0" stopTime="0.00" timeLoss="9.74" rerouteNo="1" devices="tripinfo_21 routing_21 emissions_21" vType="thesis_car" speedFactor="1.01" vaporized="">
        <emissions CO_abs="2739.09" CO2_abs="228154.06" HC_abs="17.50" PMx_abs="3.57" NOx_abs="88.74" fuel_abs="72770.76" electricity_abs="0.00"/>
    </tripinfo>
    <tripinfo id="17" depart="34.00" departLane="-23296745#1_0" departPos="4.60" departSpeed="0.00" departDelay="0.00" arrival="135.00" arrivalLane="-28996500#0_0" arrivalPos="63.26" arrivalSpeed="12.63" duration="101.00" routeLength="952.28" waitingTime="0.00" waitingCount="0" stopTime="0.00" timeLoss="19.55" rerouteNo="1" devices="tripinfo_17 routing_17 emissions_17" vType="thesis_car" speedFactor="0.94" vaporized="">
        <emissions CO_abs="4943.18" CO2_abs="299886.24" HC_abs="29.38" PMx_abs="5.12" NOx_abs="121.60" fuel_abs="95650.32" electricity_abs="0.00"/>
    </tripinfo>
    <tripinfo id="39" depart="78.00" departLane="-23296751#2_0" departPos="4.60" departSpeed="0.00" departDelay="0.00" arrival="135.00" arrivalLane="1064374314#1_0" arrivalPos="38.86" arrivalSpeed="11.79" duration="57.00" routeLength="528.54" waitingTime="0.00" waitingCount="0" stopTime="0.00" timeLoss="8.57" rerouteNo="1" devices="tripinfo_39 routing_39 emissions_39" vType="thesis_car" speedFactor="0.90" vaporized="">
        <emissions CO_abs="2602.25" CO2_abs="160719.75" HC_abs="15.45" PMx_abs="2.44" NOx_abs="63.13" fuel_abs="51262.75" electricity_abs="0.00"/>
    </tripinfo>
    <tripinfo id="38" depart="76.00" departLane="-354718285_0" departPos="4.60" departSpeed="0.00" departDelay="0.00" arrival="153.00" arrivalLane="28539493#1_0" arrivalPos="53.76" arrivalSpeed="14.65" duration="77.00" routeLength="929.05" waitingTime="0.00" waitingCount="0" stopTime="0.00" timeLoss="13.02" rerouteNo="1" devices="tripinfo_38 routing_38 emissions_38" vType="thesis_car" speedFactor="1.10" vaporized="">
        <emissions CO_abs="3400.45" CO2_abs="258977.09" HC_abs="21.06" PMx_abs="4.34" NOx_abs="102.59" fuel_abs="82601.71" electricity_abs="0.00"/>
    </tripinfo>
    <tripinfo id="20" depart="40.00" departLane="-354718285_0" departPos="4.60" departSpeed="0.00" departDelay="0.00" arrival="160.00" arrivalLane="747333148#0_0" arrivalPos="1.58" arrivalSpeed="3.83" duration="120.00" routeLength="936.68" waitingTime="3.00" waitingCount="1" stopTime="0.00" timeLoss="33.58" rerouteNo="1" devices="tripinfo_20 routing_20 emissions_20" vType="thesis_car" speedFactor="1.02" vaporized="">
        <emissions CO_abs="7503.65" CO2_abs="353979.24" HC_abs="42.22" PMx_abs="6.46" NOx_abs="146.32" fuel_abs="112904.13" electricity_abs="0.00"/>
    </tripinfo>
    <tripinfo id="47" depart="94.00" departLane="313048179#1_0" departPos="4.60" departSpeed="0.00" departDelay="0.00" arrival="173.00" arrivalLane="145087237#1_0" arrivalPos="9.31" arrivalSpeed="12.10" duration="79.00" routeLength="688.37" waitingTime="0.00" waitingCount="0" stopTime="0.00" timeLoss="15.08" rerouteNo="1" devices="tripinfo_47 routing_47 emissions_47" vType="thesis_car" speedFactor="0.90" vaporized="">
        <emissions CO_abs="4087.82" CO2_abs="233329.90" HC_abs="24.03" PMx_abs="3.93" NOx_abs="94.88" fuel_abs="74422.00" electricity_abs="0.00"/>
    </tripinfo>
    <tripinfo id="46" depart="92.00" departLane="28997018#0_0" departPos="4.60" departSpeed="0.00" departDelay="0.00" arrival="174.00" arrivalLane="174398016#1_1" arrivalPos="77.69" arrivalSpeed="12.64" duration="82.00" routeLength="1003.80" waitingTime="7.00" waitingCount="1" stopTime="0.00" timeLoss="26.12" rerouteNo="1" devices="tripinfo_46 routing_46 emissions_46" vType="thesis_car" speedFactor="1.00" vaporized="">
        <emissions CO_abs="5868.40" CO2_abs="334880.70" HC_abs="34.32" PMx_abs="6.36" NOx_abs="135.92" fuel_abs="106811.71" electricity_abs="0.00"/>
    </tripinfo>
    <tripinfo id="11" depart="22.00" departLane="428836643#1_0" departPos="4.60" departSpeed="0.00" departDelay="0.00" arrival="175.00" arrivalLane="28996951_0" arrivalPos="30.72" arrivalSpeed="11.62" duration="153.00" routeLength="1796.32" waitingTime="7.00" waitingCount="2" stopTime="0.00" timeLoss="39.97" rerouteNo="1" devices="tripinfo_11 routing_11 emissions_11" vType="thesis_car" speedFactor="1.03" vaporized="">
        <emissions CO_abs="11229.98" CO2_abs="581274.56" HC_abs="65.01" PMx_abs="11.55" NOx_abs="236.37" fuel_abs="185400.59" electricity_abs="0.00"/>
    </tripinfo>
    <tripinfo id="77" depart="154.00" departLane="894940513_0" departPos="4.60" departSpeed="0.00" departDelay="0.00" arrival="186.00" arrivalLane="23296754#1_0" arrivalPos="72.73" arrivalSpeed="12.68" duration="32.00" routeLength="292.72" waitingTime="0.00" waitingCount="0" stopTime="0.00" timeLoss="7.48" rerouteNo="1" devices="tripinfo_77 routing_77 emissions_77" vType="thesis_car" speedFactor="0.98" vaporized="">
        <emissions CO_abs="1945.02" CO2_abs="107603.75" HC_abs="11.36" PMx_abs="1.99" NOx_abs="44.78" fuel_abs="34320.72" electricity_abs="0.00"/>
    </tripinfo>
    <tripinfo id="67" depart="134.00" departLane="902908203_0" departPos="4.60" departSpeed="0.00" departDelay="0.00" arrival="198.00" arrivalLane="-184731538_0" arrivalPos="21.11" arrivalSpeed="11.22" duration="64.00" routeLength="614.88" waitingTime="0.00" waitingCount="0" stopTime="0.00" timeLoss="12.02" rerouteNo="1" devices="tripinfo_67 routing_67 emissions_67" vType="thesis_car" speedFactor="0.91" vaporized="">
        <emissions CO_abs="3006.86" CO2_abs="189770.62" HC_abs="18.00" PMx_abs="3.06" NOx_abs="75.82" fuel_abs="60528.48" electricity_abs="0.00"/>
    </tripinfo>
    <tripinfo id="33" depart="66.00" departLane="-23296751#2_0" departPos="4.60" departSpeed="0.00" departDelay="0.00" arrival="201.00" arrivalLane="27494654_0" arrivalPos="1.88" arrivalSpeed="12.96" duration="135.00" routeLength="1436.33" waitingTime="0.00" waitingCount="0" stopTime="0.00" timeLoss="28.47" rerouteNo="1" devices="tripinfo_33 routing_33 emissions_33" vType="thesis_car" speedFactor="1.17" vaporized="">
        <emissions CO_abs="7320.89" CO2_abs="492590.52" HC_abs="44.68" PMx_abs="8.64" NOx_abs="200.57" fuel_abs="157113.63" electricity_abs="0.00"/>
    </tripinfo>
    <tripinfo id="49" depart="98.00" departLane="-586361756#1_0" departPos="4.60" departSpeed="0.00" departDelay="0.00" arrival="202.00" arrivalLane="-1354862882_0" arrivalPos="31.71" arrivalSpeed="4.35" duration="104.00" routeLength="1424.33" waitingTime="0.00" waitingCount="0" stopTime="0.00" timeLoss="18.28" rerouteNo="1" devices="tripinfo_49 routing_49 emissions_49" vType="thesis_car" speedFactor="0.85" vaporized="">
        <emissions CO_abs="5072.92" CO2_abs="364298.13" HC_abs="31.42" PMx_abs="6.62" NOx_abs="142.20" fuel_abs="116194.33" electricity_abs="0.00"/>
    </tripinfo>
    <tripinfo id="79" depart="158.00" departLane="184731538_0" departPos="4.60" departSpeed="0.00" departDelay="0.00" arrival="203.00" arrivalLane="586354144#1_0" arrivalPos="5.76" arrivalSpeed="10.11" duration="45.00" routeLength="447.25" waitingTime="0.00" waitingCount="0" stopTime="0.00" timeLoss="12.03" rerouteNo="1" devices="tripinfo_79 routing_79 emissions_79" vType="thesis_car" speedFactor="1.09" vaporized="">
        <emissions CO_abs="2824.30" CO2_abs="172230.57" HC_abs="16.83" PMx_abs="3.17" NOx_abs="71.21" fuel_abs="54933.59" electricity_abs="0.00"/>
    </tripinfo>
    <tripinfo id="40" depart="80.00" departLane="1341838025_2" departPos="4.59" departSpeed="0.00" departDelay="0.00" arrival="210.00" arrivalLane="770797793_0" arrivalPos="0.20" arrivalSpeed="9.33" duration="130.00" routeLength="1063.34" waitingTime="49.00" waitingCount="1" stopTime="0.00" timeLoss="76.26" rerouteNo="1" devices="tripinfo_40 routing_40 emissions_40" vType="thesis_car" speedFactor="1.03" vaporized="">
        <emissions CO_abs="13591.61" CO2_abs="477595.64" HC_abs="72.97" PMx_abs="10.05" NOx_abs="201.66" fuel_abs="152333.42" electricity_abs="0.00"/>
    </tripinfo>
    <tripinfo id="18" depart="36.00" departLane="28539454_0" departPos="4.60" departSpeed="0.00" departDelay="0.00" arrival="220.00" arrivalLane="-744999975#1_0" arrivalPos="46.83" arrivalSpeed="6.94" duration="184.00" routeLength="2202.39" waitingTime="9.00" waitingCount="3" stopTime="0.00" timeLoss="49.83" rerouteNo="1" devices="tripinfo_18 routing_18 emissions_18" vType="thesis_car" speedFactor="0.94" vaporized="">
        <emissions CO_abs="12117.68" CO2_abs="698920.97" HC_abs="71.61" PMx_abs="13.39" NOx_abs="286.62" fuel_abs="222923.76" electricity_abs="0.00"/>
    </tripinfo>
    <tripinfo id="3" depart="6.00" departLane="-28996941_0" departPos="4.60" departSpeed="0.00" departDelay="0.00" arrival="223.00" arrivalLane="1302514926_0" arrivalPos="45.95" arrivalSpeed="14.71" duration="217.00" routeLength="2170.51" waitingTime="40.00" waitingCount="1" stopTime="0.00" timeLoss="94.11" rerouteNo="1" devices="tripinfo_3 routing_3 emissions_3" vType="thesis_car" speedFactor="1.08" vaporized="">
        <emissions CO_abs="19627.27" CO2_abs="880381.74" HC_abs="110.11" PMx_abs="18.05" NOx_abs="368.46" fuel_abs="280802.85" electricity_abs="0.00"/>
    </tripinfo>
    <tripinfo id="16" depart="32.00" departLane="-174398025#0_1" departPos="4.60" departSpeed="0.00" departDelay="0.00" arrival="226.00" arrivalLane="-28553756_0" arrivalPos="75.90" arrivalSpeed="11.13" duration="194.00" routeLength="2259.57" waitingTime="18.00" waitingCount="1" stopTime="0.00" timeLoss="53.58" rerouteNo="1" devices="tripinfo_16 routing_16 emissions_16" vType="thesis_car" speedFactor="0.88" vaporized="">
        <emissions CO_abs="12809.49" CO2_abs="720075.36" HC_abs="74.89" PMx_abs="13.49" NOx_abs="290.63" fuel_abs="229671.74" electricity_abs="0.00"/>
    </tripinfo>
    <tripinfo id="44" depart="88.00" departLane="-586354143_0" departPos="4.60" departSpeed="0.00" departDelay="0.00" arrival="227.00" arrivalLane="28537229#1_0" arrivalPos="107.39" arrivalSpeed="13.95" duration="139.00" routeLength="1667.09" waitingTime="12.00" waitingCount="1" stopTime="0.00" timeLoss="42.09" rerouteNo="1" devices="tripinfo_44 routing_44 emissions_44" vType="thesis_car" speedFactor="1.04" vaporized="">
        <emissions CO_abs="10566.41" CO2_abs="581110.81" HC_abs="61.97" PMx_abs="11.49" NOx_abs="238.91" fuel_abs="185347.79" electricity_abs="0.00"/>
    </tripinfo>
    <tripinfo id="13" depart="26.00" departLane="706539634#0_0" departPos="2.48" departSpeed="0.00" departDelay="0.00" arrival="228.00" arrivalLane="23296751#2_0" arrivalPos="137.33" arrivalSpeed="15.13" duration="202.00" routeLength="2857.85" waitingTime="0.00" waitingCount="0" stopTime="0.00" timeLoss="49.88" rerouteNo="1" devices="tripinfo_13 routing_13 emissions_13" vType="thesis_car" speedFactor="1.12" vaporized="">
        <emissions CO_abs="15957.13" CO2_abs="1037562.75" HC_abs="97.15" PMx_abs="21.16" NOx_abs="432.32" fuel_abs="330932.29" electricity_abs="0.00"/>
    </tripinfo>
    <tripinfo id="64" depart="128.00" departLane="1427235911_0" departPos="4.60" departSpeed="0.00" departDelay="0.00" arrival="228.00" arrivalLane="354718299#1_0" arrivalPos="64.46" arrivalSpeed="12.91" duration="100.00" routeLength="1138.82" waitingTime="8.00" waitingCount="1" stopTime="0.00" timeLoss="35.71" rerouteNo="1" devices="tripinfo_64 routing_64 emissions_64" vType="thesis_car" speedFactor="0.94" vaporized="">
        <emissions CO_abs="8293.33" CO2_abs="442556.81" HC_abs="48.14" PMx_abs="8.88" NOx_abs="184.29" fuel_abs="141155.24" electricity_abs="0.00"/>
    </tripinfo>
    <tripinfo id="73" depart="146.00" departLane="-354718285_0" departPos="4.60" departSpeed="0.00" departDelay="0.00" arrival="231.00" arrivalLane="354718299#1_0" arrivalPos="64.46" arrivalSpeed="14.46" duration="85.00" routeLength="977.53" waitingTime="0.00" waitingCount="0" stopTime="0.00" timeLoss="15.10" rerouteNo="1" devices="tripinfo_73 routing_73 emissions_73" vType="thesis_car" speedFactor="1.06" vaporized="">
        <emissions CO_abs="3772.81" CO2_abs="279989.42" HC_abs="23.40" PMx_abs="4.68" NOx_abs="111.57" fuel_abs="89303.74" electricity_abs="0.00"/>
    </tripinfo>
    <tripinfo id="50" depart="100.00" departLane="744397363#0_0" departPos="4.60" departSpeed="0.00" departDelay="0.00" arrival="232.00" arrivalLane="748795297_0" arrivalPos="5.50" arrivalSpeed="22.63" duration="132.00" routeLength="1105.74" waitingTime="48.00" waitingCount="3" stopTime="0.00" timeLoss="83.89" rerouteNo="1" devices="tripinfo_50 routing_50 emissions_50" vType="thesis_car" speedFactor="0.85" vaporized="">
        <emissions CO_abs="16901.45" CO2_abs="623778.50" HC_abs="91.79" PMx_abs="13.77" NOx_abs="268.69" fuel_abs="198958.46" electricity_abs="0.00"/>
    </tripinfo>
    <tripinfo id="26" depart="52.00" departLane="586354144#0_0" departPos="4.60" departSpeed="0.00" departDelay="0.00" arrival="236.00" arrivalLane="339318044#0_1" arrivalPos="60.05" arrivalSpeed="15.68" duration="184.00" routeLength="2579.01" waitingTime="2.00" waitingCount="1" stopTime="0.00" timeLoss="44.58" rerouteNo="1" devices="tripinfo_26 routing_26 emissions_26" vType="thesis_car" speedFactor="0.92" vaporized="">
        <emissions CO_abs="12177.20" CO2_abs="770853.23" HC_abs="73.60" PMx_abs="15.18" NOx_abs="312.23" fuel_abs="245866.06" electricity_abs="0.00"/>
    </tripinfo>
    <tripinfo id="80" depart="160.00" departLane="-28539575#1_0" departPos="4.60" departSpeed="0.00" departDelay="0.00" arrival="236.00" arrivalLane="800671112#12_0" arrivalPos="105.93" arrivalSpeed="14.16" duration="76.00" routeLength="829.14" waitingTime="0.00" waitingCount="0" stopTime="0.00" timeLoss="14.93" rerouteNo="1" devices="tripinfo_80 routing_80 emissions_80" vType="thesis_car" speedFactor="1.03" vaporized="">
        <emissions CO_abs="3830.77" CO2_abs="259442.58" HC_abs="23.32" PMx_abs="4.53" NOx_abs="105.07" fuel_abs="82750.23" electricity_abs="0.00"/>
    </tripinfo>
    <tripinfo id="53" depart="106.00" departLane="1436005548_1" departPos="4.60" departSpeed="0.00" departDelay="0.00" arrival="239.00" arrivalLane="184736575#1_0" arrivalPos="30.04" arrivalSpeed="11.67" duration="133.00" routeLength="1949.56" waitingTime="0.00" waitingCount="0" stopTime="0.00" timeLoss="43.99" rerouteNo="1" devices="tripinfo_53 routing_53 emissions_53" vType="thesis_car" speedFactor="1.10" vaporized="">
        <emissions CO_abs="11056.47" CO2_abs="659842.89" HC_abs="66.31" PMx_abs="13.94" NOx_abs="274.90" fuel_abs="210458.29" electricity_abs="0.00"/>
    </tripinfo>
    <tripinfo id="31" depart="62.00" departLane="984799393_1" departPos="4.60" departSpeed="0.00" departDelay="0.00" arrival="240.00" arrivalLane="1321735225_1" arrivalPos="26.00" arrivalSpeed="11.93" duration="178.00" routeLength="2099.54" waitingTime="19.00" waitingCount="3" stopTime="0.00" timeLoss="61.54" rerouteNo="1" devices="tripinfo_31 routing_31 emissions_31" vType="thesis_car" speedFactor="1.15" vaporized="">
        <emissions CO_abs="15127.59" CO2_abs="810464.18" HC_abs="87.95" PMx_abs="16.51" NOx_abs="339.67" fuel_abs="258500.40" electricity_abs="0.00"/>
    </tripinfo>
    <tripinfo id="70" depart="140.00" departLane="1272650816_0" departPos="4.60" departSpeed="0.00" departDelay="0.00" arrival="242.00" arrivalLane="-28996500#0_0" arrivalPos="63.26" arrivalSpeed="13.20" duration="102.00" routeLength="1008.07" waitingTime="0.00" waitingCount="0" stopTime="0.00" timeLoss="21.44" rerouteNo="1" devices="tripinfo_70 routing_70 emissions_70" vType="thesis_car" speedFactor="1.02" vaporized="">
        <emissions CO_abs="5755.71" CO2_abs="361343.77" HC_abs="34.65" PMx_abs="6.42" NOx_abs="148.20" fuel_abs="115252.12" electricity_abs="0.00"/>
    </tripinfo>
    <tripinfo id="9" depart="18.00" departLane="842050932_0" departPos="4.60" departSpeed="0.00" departDelay="0.00" arrival="245.00" arrivalLane="-555335240#2_0" arrivalPos="33.00" arrivalSpeed="10.67" duration="227.00" routeLength="2715.80" waitingTime="5.00" waitingCount="2" stopTime="0.00" timeLoss="55.00" rerouteNo="1" devices="tripinfo_9 routing_9 emissions_9" vType="thesis_car" speedFactor="0.86" vaporized="">
        <emissions CO_abs="13841.31" CO2_abs="846615.59" HC_abs="82.97" PMx_abs="16.10" NOx_abs="345.54" fuel_abs="270031.23" electricity_abs="0.00"/>
    </tripinfo>
    <tripinfo id="2" depart="4.00" departLane="745055614#1_1" departPos="4.60" departSpeed="0.00" departDelay="0.00" arrival="246.00" arrivalLane="-183687544#0_0" arrivalPos="74.92" arrivalSpeed="13.61" duration="242.00" routeLength="3001.80" waitingTime="16.00" waitingCount="1" stopTime="0.00" timeLoss="65.02" rerouteNo="1" devices="tripinfo_2 routing_2 emissions_2" vType="thesis_car" speedFactor="1.01" vaporized="">
        <emissions CO_abs="17174.21" CO2_abs="1016877.58" HC_abs="102.25" PMx_abs="20.03" NOx_abs="417.09" fuel_abs="324336.71" electricity_abs="0.00"/>
    </tripinfo>
    <tripinfo id="27" depart="54.00" departLane="-586364755_0" departPos="4.60" departSpeed="0.00" departDelay="0.00" arrival="253.00" arrivalLane="-28995751#0_0" arrivalPos="45.49" arrivalSpeed="12.76" duration="199.00" routeLength="2356.01" waitingTime="0.00" waitingCount="0" stopTime="0.00" timeLoss="41.96" rerouteNo="1" devices="tripinfo_27 routing_27 emissions_27" vType="thesis_car" speedFactor="0.95" vaporized="">
        <emissions CO_abs="11620.32" CO2_abs="735107.05" HC_abs="69.71" PMx_abs="13.58" NOx_abs="298.03" fuel_abs="234465.22" electricity_abs="0.00"/>
    </tripinfo>
    <tripinfo id="42" depart="84.00" departLane="184731538_0" departPos="4.60" departSpeed="0.00" departDelay="0.00" arrival="253.00" arrivalLane="-27274191#3_0" arrivalPos="75.48" arrivalSpeed="14.33" duration="169.00" routeLength="2487.39" waitingTime="4.00" waitingCount="1" stopTime="0.00" timeLoss="46.18" rerouteNo="1" devices="tripinfo_42 routing_42 emissions_42" vType="thesis_car" speedFactor="1.09" vaporized="">
        <emissions CO_abs="13536.07" CO2_abs="768736.51" HC_abs="80.26" PMx_abs="15.95" NOx_abs="309.58" fuel_abs="245191.56" electricity_abs="0.00"/>
    </tripinfo>
    <tripinfo id="66" depart="132.00" departLane="-226831895#1_0" departPos="4.60" departSpeed="0.00" departDelay="0.00" arrival="254.00" arrivalLane="1064374314#1_0" arrivalPos="38.86" arrivalSpeed="11.98" duration="122.00" routeLength="938.26" waitingTime="0.00" waitingCount="0" stopTime="0.00" timeLoss="15.67" rerouteNo="1" devices="tripinfo_66 routing_66 emissions_66" vType="thesis_car" speedFactor="0.91" vaporized="">
        <emissions CO_abs="5125.90" CO2_abs="258429.95" HC_abs="29.22" PMx_abs="4.11" NOx_abs="103.84" fuel_abs="82428.44" electricity_abs="0.00"/>
    </tripinfo>
    <tripinfo id="19" depart="38.00" departLane="-96487801#1_0" departPos="4.60" departSpeed="0.00" departDelay="0.00" arrival="256.00" arrivalLane="-28553592_0" arrivalPos="59.12" arrivalSpeed="15.68" duration="218.00" routeLength="2754.12" waitingTime="17.00" waitingCount="2" stopTime="0.00" timeLoss="75.78" rerouteNo="1" devices="tripinfo_19 routing_19 emissions_19" vType="thesis_car" speedFactor="1.16" vaporized="">
        <emissions CO_abs="18617.97" CO2_abs="1021172.99" HC_abs="109.12" PMx_abs="21.20" NOx_abs="426.39" fuel_abs="325706.34" electricity_abs="0.00"/>
    </tripinfo>
    <tripinfo id="85" depart="170.00" departLane="27274180_0" departPos="4.34" departSpeed="0.00" departDelay="0.00" arrival="256.00" arrivalLane="27274186_0" arrivalPos="14.23" arrivalSpeed="10.34" duration="86.00" routeLength="526.64" waitingTime="17.00" waitingCount="1" stopTime="0.00" timeLoss="34.33" rerouteNo="1" devices="tripinfo_85 routing_85 emissions_85" vType="thesis_car" speedFactor="0.98" vaporized="">
        <emissions CO_abs="7207.20" CO2_abs="250850.71" HC_abs="38.50" PMx_abs="4.71" NOx_abs="104.84" fuel_abs="80011.60" electricity_abs="0.00"/>
    </tripinfo>
    <tripinfo id="117" depart="234.00" departLane="706539634#0_0" departPos="2.48" departSpeed="0.00" departDelay="0.00" arrival="257.00" arrivalLane="896943854_0" arrivalPos="28.87" arrivalSpeed="13.91" duration="23.00" routeLength="159.30" waitingTime="0.00" waitingCount="0" stopTime="0.00" timeLoss="8.86" rerouteNo="1" devices="tripinfo_117 routing_117 emissions_117" vType="thesis_car" speedFactor="1.00" vaporized="">
        <emissions CO_abs="2045.60" CO2_abs="100109.43" HC_abs="11.70" PMx_abs="2.04" NOx_abs="43.23" fuel_abs="31930.28" electricity_abs="0.00"/>
    </tripinfo>
    <tripinfo id="96" depart="192.00" departLane="561395730#1_0" departPos="4.60" departSpeed="0.00" departDelay="0.00" arrival="261.00" arrivalLane="28996500#2_0" arrivalPos="77.46" arrivalSpeed="13.11" duration="69.00" routeLength="436.00" waitingTime="0.00" waitingCount="0" stopTime="0.00" timeLoss="9.69" rerouteNo="1" devices="tripinfo_96 routing_96 emissions_96" vType="thesis_car" speedFactor="1.01" vaporized="">
        <emissions CO_abs="4034.15" CO2_abs="158582.70" HC_abs="21.85" PMx_abs="2.57" NOx_abs="63.98" fuel_abs="50581.80" electricity_abs="0.00"/>
    </tripinfo>
    <tripinfo id="1" depart="2.00" departLane="-428836644#2_1" departPos="4.60" departSpeed="0.00" departDelay="0.00" arrival="267.00" arrivalLane="-28553639#0_0" arrivalPos="78.55" arrivalSpeed="12.18" duration="265.00" routeLength="3244.56" waitingTime="2.00" waitingCount="1" stopTime="0.00" timeLoss="55.56" rerouteNo="1" devices="tripinfo_1 routing_1 emissions_1" vType="thesis_car" speedFactor="0.94" vaporized="">
        <emissions CO_abs="15623.81" CO2_abs="984712.98" HC_abs="94.32" PMx_abs="18.47" NOx_abs="396.48" fuel_abs="314078.22" electricity_abs="0.00"/>
    </tripinfo>
    <tripinfo id="0" depart="0.00" departLane="28539702#7_0" departPos="4.60" departSpeed="0.00" departDelay="0.00" arrival="268.00" arrivalLane="-1072176585_0" arrivalPos="24.93" arrivalSpeed="13.16" duration="268.00" routeLength="2806.29" waitingTime="62.00" waitingCount="3" stopTime="0.00" timeLoss="120.51" rerouteNo="1" devices="tripinfo_0 routing_0 emissions_0" vType="thesis_car" speedFactor="1.06" vaporized="">
        <emissions CO_abs="27540.98" CO2_abs="1188130.39" HC_abs="153.69" PMx_abs="25.42" NOx_abs="499.19" fuel_abs="378960.91" electricity_abs="0.00"/>
    </tripinfo>
    <tripinfo id="14" depart="28.00" departLane="28553959#3_0" departPos="4.60" departSpeed="0.00" departDelay="0.00" arrival="268.00" arrivalLane="-1281884999_0" arrivalPos="17.68" arrivalSpeed="11.97" duration="240.00" routeLength="3529.51" waitingTime="23.00" waitingCount="1" stopTime="0.00" timeLoss="68.75" rerouteNo="1" devices="tripinfo_14 routing_14 emissions_14" vType="thesis_car" speedFactor="0.99" vaporized="">
        <emissions CO_abs="19847.10" CO2_abs="1171483.33" HC_abs="118.26" PMx_abs="23.92" NOx_abs="478.14" fuel_abs="373648.39" electricity_abs="0.00"/>
    </tripinfo>
    <tripinfo id="41" depart="82.00" departLane="744375106#1_3" departPos="4.60" departSpeed="0.00" departDelay="0.00" arrival="290.00" arrivalLane="-28995669_0" arrivalPos="88.37" arrivalSpeed="13.27" duration="208.00" routeLength="2414.46" waitingTime="42.00" waitingCount="3" stopTime="0.00" timeLoss="94.60" rerouteNo="1" devices="tripinfo_41 routing_41 emissions_41" vType="thesis_car" speedFactor="0.96" vaporized="">
        <emissions CO_abs="21927.67" CO2_abs="1043303.00" HC_abs="124.71" PMx_abs="22.25" NOx_abs="442.17" fuel_abs="332765.73" electricity_abs="0.00"/>
    </tripinfo>
    <tripinfo id="103" depart="206.00" departLane="586354144#0_0" departPos="4.60" departSpeed="0.00" departDelay="0.00" arrival="292.00" arrivalLane="-183689239#0_0" arrivalPos="9.45" arrivalSpeed="12.34" duration="86.00" routeLength="854.25" waitingTime="0.00" waitingCount="0" stopTime="0.00" timeLoss="16.75" rerouteNo="1" devices="tripinfo_103 routing_103 emissions_103" vType="thesis_car" speedFactor="0.95" vaporized="">
        <emissions CO_abs="4439.15" CO2_abs="280716.48" HC_abs="26.66" PMx_abs="4.87" NOx_abs="114.25" fuel_abs="89535.82" electricity_abs="0.00"/>
    </tripinfo>
    <tripinfo id="106" depart="212.00" departLane="28996820#0_0" departPos="4.60" departSpeed="0.00" departDelay="0.00" arrival="295.00" arrivalLane="184852741#1_0" arrivalPos="46.05" arrivalSpeed="12.84" duration="83.00" routeLength="1097.47" waitingTime="3.00" waitingCount="1" stopTime="0.00" timeLoss="21.40" rerouteNo="1" devices="tripinfo_106 routing_106 emissions_106" vType="thesis_car" speedFactor="1.01" vaporized="">
        <emissions CO_abs="6084.38" CO2_abs="378352.63" HC_abs="36.44" PMx_abs="7.35" NOx_abs="154.76" fuel_abs="120676.79" electricity_abs="0.00"/>
    </tripinfo>
    <tripinfo id="4" depart="8.00" departLane="28539908_0" departPos="4.60" departSpeed="0.00" departDelay="0.00" arrival="298.00" arrivalLane="183689239#2_0" arrivalPos="27.80" arrivalSpeed="13.60" duration="290.00" routeLength="3617.71" waitingTime="1.00" waitingCount="1" stopTime="0.00" timeLoss="62.76" rerouteNo="1" devices="tripinfo_4 routing_4 emissions_4" vType="thesis_car" speedFactor="1.03" vaporized="">
        <emissions CO_abs="19313.54" CO2_abs="1174108.24" HC_abs="115.50" PMx_abs="22.91" NOx_abs="477.45" fuel_abs="374486.09" electricity_abs="0.00"/>
    </tripinfo>
    <tripinfo id="43" depart="86.00" departLane="747228982#1_1" departPos="4.60" departSpeed="0.00" departDelay="0.00" arrival="299.00" arrivalLane="586371499_0" arrivalPos="97.25" arrivalSpeed="13.56" duration="213.00" routeLength="2053.06" waitingTime="6.00" waitingCount="1" stopTime="0.00" timeLoss="43.77" rerouteNo="1" devices="tripinfo_43 routing_43 emissions_43" vType="thesis_car" speedFactor="1.04" vaporized="">
        <emissions CO_abs="12800.10" CO2_abs="681488.44" HC_abs="73.77" PMx_abs="12.50" NOx_abs="278.12" fuel_abs="217364.61" electricity_abs="0.00"/>
    </tripinfo>
    <tripinfo id="59" depart="119.00" departLane="-28996951_0" departPos="4.60" departSpeed="0.00" departDelay="1.00" arrival="299.00" arrivalLane="744640943#1_0" arrivalPos="12.01" arrivalSpeed="13.20" duration="180.00" routeLength="1690.29" waitingTime="28.00" waitingCount="1" stopTime="0.00" timeLoss="63.54" rerouteNo="1" devices="tripinfo_59 routing_59 emissions_59" vType="thesis_car" speedFactor="0.97" vaporized="">
        <emissions CO_abs="15254.41" CO2_abs="686921.69" HC_abs="85.48" PMx_abs="13.80" NOx_abs="288.05" fuel_abs="219097.74" electricity_abs="0.00"/>
    </tripinfo>