<?xml version="1.0" encoding="UTF-8"?>

<!-- generated on 2026-02-18T17:47:52.359630+08:00 by Eclipse SUMO GUI 1.25.0
<sumoConfiguration xmlns:xsi="http://www.w3.org/2001/XMLSchema-instance" xsi:noNamespaceSchemaLocation="http://sumo.dlr.de/xsd/sumoConfiguration.xsd">

    <input>
        <net-file value="c:\Users\otaku\Documents\Thesis\apriori_civiq\scenarios/bgc_full/final_map.net.xml"/>
        <route-files value="c:\Users\otaku\Documents\Thesis\apriori_civiq\scenarios/bgc_full/wardrop_routes_low.rou.xml"/>
        <additional-files value="c:\Users\otaku\Documents\Thesis\apriori_civiq\scenarios/bgc_full/osm.poly.xml.gz,c:\Users\otaku\Documents\Thesis\apriori_civiq\scenarios/bgc_full/output.add.xml,c:\Users\otaku\Documents\Thesis\apriori_civiq\scenarios/bgc_full/vtypes.add.xml"/>
    </input>

    <output>
        <summary-output value="c:\Users\otaku\Documents\Thesis\apriori_civiq\scenarios/bgc_full/data\summary_low.xml"/>
        <tripinfo-output value="c:\Users\otaku\Documents\Thesis\apriori_civiq\scenarios/bgc_full/data\tripinfo_low.xml"/>
        <statistic-output value="c:\Users\otaku\Documents\Thesis\apriori_civiq\scenarios/bgc_full/data\stats_low.xml"/>
    </output>

    <time>
        <step-length value="1.0"/>
    </time>

    <processing>
        <ignore-route-errors value="true"/>
        <time-to-teleport value="-1"/>
        <tls.actuated.jam-threshold value="30"/>
    </processing>

    <routing>
        <device.rerouting.adaptation-steps value="18"/>
        <device.rerouting.adaptation-interval value="10"/>
    </routing>

    <report>
        <verbose value="true"/>
        <duration-log.statistics value="true"/>
        <no-step-log value="true"/>
    </report>

    <emissions>
        <device.emissions.probability value="1.0"/>
    </emissions>

    <traci_server>
        <remote-port value="57117"/>
    </traci_server>

    <gui_only>
        <gui-settings-file value="c:\Users\otaku\Documents\Thesis\apriori_civiq\scenarios/bgc_full/osm.view.xml"/>
        <start value="true"/>
    </gui_only>

</sumoConfiguration>
-->

<tripinfos xmlns:xsi="http://www.w3.org/2001/XMLSchema-instance" xsi:noNamespaceSchemaLocation="http://sumo.dlr.de/xsd/tripinfo_file.xsd">
    <tripinfo id="6" depart="24.00" departLane="-586354143_0" departPos="20.30" departSpeed="14.13" departDelay="0.00" arrival="73.00" arrivalLane="28553554#10_0" arrivalPos="24.00" arrivalSpeed="13.68" duration="49.00" routeLength="624.93" waitingTime="0.00" waitingCount="0" stopTime="0.00" timeLoss="3.68" rerouteNo="0" devices="tripinfo_6 emissions_6" vType="DEFAULT_VEHTYPE" speedFactor="1.02" vaporized="">
        <emissions CO_abs="637.30" CO2_abs="103019.52" HC_abs="4.27" PMx_abs="12.48" NOx_abs="36.74" fuel_abs="33397.66" electricity_abs="0.00"/>
    </tripinfo>
    <tripinfo id="23" depart="92.00" departLane="313048179#5_0" departPos="15.39" departSpeed="12.83" departDelay="0.00" arrival="111.00" arrivalLane="28995163#11_0" arrivalPos="23.68" arrivalSpeed="15.32" duration="19.00" routeLength="208.63" waitingTime="0.00" waitingCount="0" stopTime="0.00" timeLoss="4.91" rerouteNo="0" devices="tripinfo_23 emissions_23" vType="DEFAULT_VEHTYPE" speedFactor="1.15" vaporized="">
        <emissions CO_abs="566.38" CO2_abs="74683.00" HC_abs="3.75" PMx_abs="5.22" NOx_abs="25.84" fuel_abs="24211.07" electricity_abs="0.00"/>
    </tripinfo>
    <tripinfo id="0" depart="0.00" departLane="28997044#0_0" departPos="23.91" departSpeed="2.92" departDelay="0.00" arrival="132.00" arrivalLane="-1292162272#0_1" arrivalPos="3.92" arrivalSpeed="5.02" duration="132.00" routeLength="1008.42" waitingTime="4.00" waitingCount="1" stopTime="0.00" timeLoss="24.32" rerouteNo="0" devices="tripinfo_0 emissions_0" vType="DEFAULT_VEHTYPE" speedFactor="0.98" vaporized="">
        <emissions CO_abs="1131.37" CO2_abs="287187.81" HC_abs="7.50" PMx_abs="21.45" NOx_abs="95.39" fuel_abs="93102.39" electricity_abs="0.00"/>
    </tripinfo>
    <tripinfo id="11" depart="44.00" departLane="-23296771#2_0" departPos="15.53" departSpeed="6.02" departDelay="0.00" arrival="134.00" arrivalLane="-23296768#1_0" arrivalPos="257.33" arrivalSpeed="11.77" duration="90.00" routeLength="841.99" waitingTime="0.00" waitingCount="0" stopTime="0.00" timeLoss="17.72" rerouteNo="0" devices="tripinfo_11 emissions_11" vType="DEFAULT_VEHTYPE" speedFactor="0.93" vaporized="">
        <emissions CO_abs="1129.92" CO2_abs="229827.91" HC_abs="7.50" PMx_abs="18.71" NOx_abs="76.21" fuel_abs="74506.96" electricity_abs="0.00"/>
    </tripinfo>
    <tripinfo id="3" depart="12.00" departLane="-555335240#2_0" departPos="16.22" departSpeed="14.53" departDelay="0.00" arrival="149.00" arrivalLane="24957185#1_2" arrivalPos="42.75" arrivalSpeed="12.82" duration="137.00" routeLength="1947.18" waitingTime="4.00" waitingCount="2" stopTime="0.00" timeLoss="44.98" rerouteNo="0" devices="tripinfo_3 emissions_3" vType="DEFAULT_VEHTYPE" speedFactor="1.05" vaporized="">
        <emissions CO_abs="7196.85" CO2_abs="623838.56" HC_abs="47.92" PMx_abs="53.21" NOx_abs="240.94" fuel_abs="202237.57" electricity_abs="0.00"/>
    </tripinfo>
    <tripinfo id="13" depart="52.00" departLane="744640943#1_0" departPos="5.43" departSpeed="13.00" departDelay="0.00" arrival="186.00" arrivalLane="54039517#1_0" arrivalPos="40.88" arrivalSpeed="12.56" duration="134.00" routeLength="1196.70" waitingTime="17.00" waitingCount="3" stopTime="0.00" timeLoss="51.67" rerouteNo="0" devices="tripinfo_13 emissions_13" vType="DEFAULT_VEHTYPE" speedFactor="0.94" vaporized="">
        <emissions CO_abs="2696.23" CO2_abs="398615.08" HC_abs="17.89" PMx_abs="28.13" NOx_abs="139.76" fuel_abs="129224.94" electricity_abs="0.00"/>
    </tripinfo>
    <tripinfo id="14" depart="56.00" departLane="28536354#0_1" departPos="19.02" departSpeed="15.04" departDelay="0.00" arrival="203.00" arrivalLane="897106072#1_0" arrivalPos="25.69" arrivalSpeed="9.87" duration="147.00" routeLength="2523.82" waitingTime="0.00" waitingCount="0" stopTime="0.00" timeLoss="31.03" rerouteNo="0" devices="tripinfo_14 emissions_14" vType="DEFAULT_VEHTYPE" speedFactor="1.08" vaporized="">
        <emissions CO_abs="8131.28" CO2_abs="638016.97" HC_abs="54.83" PMx_abs="69.29" NOx_abs="247.96" fuel_abs="206834.37" electricity_abs="0.00"/>
    </tripinfo>
    <tripinfo id="7" depart="28.00" departLane="744645401#1_0" departPos="27.25" departSpeed="30.30" departDelay="0.00" arrival="205.00" arrivalLane="-1065726174_0" arrivalPos="63.66" arrivalSpeed="14.32" duration="177.00" routeLength="1372.19" waitingTime="77.00" waitingCount="2" stopTime="0.00" timeLoss="114.94" rerouteNo="0" devices="tripinfo_7 emissions_7" vType="DEFAULT_VEHTYPE" speedFactor="1.09" vaporized="">
        <emissions CO_abs="5889.15" CO2_abs="619284.56" HC_abs="39.03" PMx_abs="36.12" NOx_abs="240.80" fuel_abs="200762.22" electricity_abs="0.00"/>
    </tripinfo>
    <tripinfo id="12" depart="48.00" departLane="746423905#1_0" departPos="21.04" departSpeed="8.68" departDelay="0.00" arrival="208.00" arrivalLane="28553959#9_0" arrivalPos="73.80" arrivalSpeed="14.23" duration="160.00" routeLength="2417.27" waitingTime="0.00" waitingCount="0" stopTime="0.00" timeLoss="34.30" rerouteNo="0" devices="tripinfo_12 emissions_12" vType="DEFAULT_VEHTYPE" speedFactor="1.04" vaporized="">
        <emissions CO_abs="8145.54" CO2_abs="705802.60" HC_abs="54.47" PMx_abs="68.20" NOx_abs="272.27" fuel_abs="228809.59" electricity_abs="0.00"/>
    </tripinfo>
    <tripinfo id="1" depart="4.00" departLane="747853024#2_0" departPos="23.96" departSpeed="15.04" departDelay="0.00" arrival="219.00" arrivalLane="-23296743#2_0" arrivalPos="22.63" arrivalSpeed="8.90" duration="215.00" routeLength="2414.28" waitingTime="41.00" waitingCount="1" stopTime="0.00" timeLoss="85.12" rerouteNo="0" devices="tripinfo_1 emissions_1" vType="DEFAULT_VEHTYPE" speedFactor="1.08" vaporized="">
        <emissions CO_abs="7748.08" CO2_abs="780806.95" HC_abs="51.59" PMx_abs="61.71" NOx_abs="296.43" fuel_abs="253124.98" electricity_abs="0.00"/>
    </tripinfo>
    <tripinfo id="17" depart="68.00" departLane="746811049#1_0" departPos="23.70" departSpeed="24.71" departDelay="0.00" arrival="236.00" arrivalLane="28539946#2_0" arrivalPos="25.59" arrivalSpeed="10.86" duration="168.00" routeLength="1210.34" waitingTime="0.00" waitingCount="0" stopTime="0.00" timeLoss="26.38" rerouteNo="0" devices="tripinfo_17 emissions_17" vType="DEFAULT_VEHTYPE" speedFactor="0.89" vaporized="">
        <emissions CO_abs="1043.76" CO2_abs="299504.24" HC_abs="6.94" PMx_abs="22.91" NOx_abs="100.32" fuel_abs="97095.33" electricity_abs="0.00"/>
    </tripinfo>
    <tripinfo id="46" depart="184.00" departLane="747228973#1_0" departPos="14.88" departSpeed="22.15" departDelay="0.00" arrival="238.00" arrivalLane="-747447017#1_1" arrivalPos="12.31" arrivalSpeed="12.79" duration="54.00" routeLength="576.44" waitingTime="6.00" waitingCount="1" stopTime="0.00" timeLoss="23.76" rerouteNo="0" devices="tripinfo_46 emissions_46" vType="DEFAULT_VEHTYPE" speedFactor="1.00" vaporized="">
        <emissions CO_abs="1467.12" CO2_abs="179502.19" HC_abs="9.75" PMx_abs="13.32" NOx_abs="64.31" fuel_abs="58191.74" electricity_abs="0.00"/>
    </tripinfo>
    <tripinfo id="29" depart="116.00" departLane="1057272192#1_2" departPos="23.63" departSpeed="23.95" departDelay="0.00" arrival="239.00" arrivalLane="-747853024#0_1" arrivalPos="18.33" arrivalSpeed="15.07" duration="123.00" routeLength="1975.09" waitingTime="10.00" waitingCount="1" stopTime="0.00" timeLoss="37.72" rerouteNo="0" devices="tripinfo_29 emissions_29" vType="DEFAULT_VEHTYPE" speedFactor="1.10" vaporized="">
        <emissions CO_abs="6564.37" CO2_abs="540996.19" HC_abs="44.16" PMx_abs="54.16" NOx_abs="209.35" fuel_abs="175381.98" electricity_abs="0.00"/>
    </tripinfo>
    <tripinfo id="34" depart="136.00" departLane="-747853025#3_0" departPos="0.24" departSpeed="10.70" departDelay="0.00" arrival="241.00" arrivalLane="-745055614#1_1" arrivalPos="13.06" arrivalSpeed="6.21" duration="105.00" routeLength="645.46" waitingTime="23.00" waitingCount="1" stopTime="0.00" timeLoss="36.83" rerouteNo="0" devices="tripinfo_34 emissions_34" vType="DEFAULT_VEHTYPE" speedFactor="0.77" vaporized="">
        <emissions CO_abs="485.94" CO2_abs="184832.21" HC_abs="3.23" PMx_abs="12.60" NOx_abs="63.34" fuel_abs="59920.43" electricity_abs="0.00"/>
    </tripinfo>
    <tripinfo id="10" depart="40.00" departLane="814837413#1_0" departPos="0.15" departSpeed="12.51" departDelay="0.00" arrival="245.00" arrivalLane="1072980033#0_0" arrivalPos="0.20" arrivalSpeed="6.50" duration="205.00" routeLength="2110.94" waitingTime="18.00" waitingCount="2" stopTime="0.00" timeLoss="63.72" rerouteNo="0" devices="tripinfo_10 emissions_10" vType="DEFAULT_VEHTYPE" speedFactor="0.90" vaporized="">
        <emissions CO_abs="6340.79" CO2_abs="699493.29" HC_abs="42.11" PMx_abs="53.17" NOx_abs="259.36" fuel_abs="226764.48" electricity_abs="0.00"/>
    </tripinfo>
    <tripinfo id="9" depart="36.00" departLane="1212504575_0" departPos="15.96" departSpeed="15.60" departDelay="0.00" arrival="252.00" arrivalLane="-28553906_0" arrivalPos="69.55" arrivalSpeed="14.89" duration="216.00" routeLength="2855.18" waitingTime="13.00" waitingCount="1" stopTime="0.00" timeLoss="69.84" rerouteNo="0" devices="tripinfo_9 emissions_9" vType="DEFAULT_VEHTYPE" speedFactor="1.12" vaporized="">
        <emissions CO_abs="9783.47" CO2_abs="908579.18" HC_abs="65.27" PMx_abs="77.20" NOx_abs="343.45" fuel_abs="294546.00" electricity_abs="0.00"/>
    </tripinfo>
    <tripinfo id="47" depart="188.00" departLane="749508466#1_0" departPos="40.76" departSpeed="31.09" departDelay="0.00" arrival="254.00" arrivalLane="747009416#1_0" arrivalPos="12.73" arrivalSpeed="14.33" duration="66.00" routeLength="888.72" waitingTime="0.00" waitingCount="0" stopTime="0.00" timeLoss="11.47" rerouteNo="0" devices="tripinfo_47 emissions_47" vType="DEFAULT_VEHTYPE" speedFactor="1.12" vaporized="">
        <emissions CO_abs="1476.46" CO2_abs="195466.12" HC_abs="9.93" PMx_abs="19.78" NOx_abs="68.51" fuel_abs="63367.35" electricity_abs="0.00"/>
    </tripinfo>
    <tripinfo id="59" depart="236.00" departLane="183688028#0_0" departPos="56.58" departSpeed="15.10" departDelay="0.00" arrival="264.00" arrivalLane="-440588496#5_1" arrivalPos="27.03" arrivalSpeed="11.72" duration="28.00" routeLength="323.37" waitingTime="0.00" waitingCount="0" stopTime="0.00" timeLoss="4.83" rerouteNo="0" devices="tripinfo_59 emissions_59" vType="DEFAULT_VEHTYPE" speedFactor="1.09" vaporized="">
        <emissions CO_abs="485.81" CO2_abs="79091.74" HC_abs="3.24" PMx_abs="7.29" NOx_abs="26.88" fuel_abs="25640.42" electricity_abs="0.00"/>
    </tripinfo>
    <tripinfo id="33" depart="132.00" departLane="749513998_0" departPos="18.68" departSpeed="14.42" departDelay="0.00" arrival="276.00" arrivalLane="226831899#2_0" arrivalPos="20.33" arrivalSpeed="8.57" duration="144.00" routeLength="1826.94" waitingTime="13.00" waitingCount="2" stopTime="0.00" timeLoss="52.30" rerouteNo="0" devices="tripinfo_33 emissions_33" vType="DEFAULT_VEHTYPE" speedFactor="1.04" vaporized="">
        <emissions CO_abs="7313.97" CO2_abs="640686.31" HC_abs="48.61" PMx_abs="50.40" NOx_abs="248.36" fuel_abs="207699.17" electricity_abs="0.00"/>
    </tripinfo>
    <tripinfo id="22" depart="88.00" departLane="-747853030_0" departPos="5.07" departSpeed="12.42" departDelay="0.00" arrival="290.00" arrivalLane="770814991_0" arrivalPos="9.53" arrivalSpeed="12.34" duration="202.00" routeLength="1299.71" waitingTime="96.00" waitingCount="3" stopTime="0.00" timeLoss="129.13" rerouteNo="0" devices="tripinfo_22 emissions_22" vType="DEFAULT_VEHTYPE" speedFactor="0.89" vaporized="">
        <emissions CO_abs="3029.54" CO2_abs="520744.50" HC_abs="20.18" PMx_abs="32.10" NOx_abs="191.26" fuel_abs="168818.60" electricity_abs="0.00"/>
    </tripinfo>
    <tripinfo id="4" depart="16.00" departLane="-1292171266_0" departPos="23.03" departSpeed="8.98" departDelay="0.00" arrival="298.00" arrivalLane="-35062147#1_0" arrivalPos="113.54" arrivalSpeed="11.44" duration="282.00" routeLength="3053.28" waitingTime="75.00" waitingCount="3" stopTime="0.00" timeLoss="130.14" rerouteNo="0" devices="tripinfo_4 emissions_4" vType="DEFAULT_VEHTYPE" speedFactor="1.08" vaporized="">
        <emissions CO_abs="12122.12" CO2_abs="1102432.53" HC_abs="80.73" PMx_abs="85.78" NOx_abs="434.15" fuel_abs="357390.12" electricity_abs="0.00"/>
    </tripinfo>
    <tripinfo id="61" depart="244.00" departLane="204841599_1" departPos="14.92" departSpeed="24.16" departDelay="0.00" arrival="302.00" arrivalLane="27274183#4_0" arrivalPos="20.68" arrivalSpeed="13.49" duration="58.00" routeLength="473.33" waitingTime="0.00" waitingCount="0" stopTime="0.00" timeLoss="13.66" rerouteNo="0" devices="tripinfo_61 emissions_61" vType="DEFAULT_VEHTYPE" speedFactor="1.02" vaporized="">
        <emissions CO_abs="710.90" CO2_abs="144479.98" HC_abs="4.70" PMx_abs="9.17" NOx_abs="47.52" fuel_abs="46838.26" electricity_abs="0.00"/>
    </tripinfo>
    <tripinfo id="24" depart="96.00" departLane="-28996951_0" departPos="28.85" departSpeed="1.87" departDelay="0.00" arrival="306.00" arrivalLane="51355540#1_0" arrivalPos="48.16" arrivalSpeed="22.28" duration="210.00" routeLength="1697.46" waitingTime="76.00" waitingCount="2" stopTime="0.00" timeLoss="118.34" rerouteNo="0" devices="tripinfo_24 emissions_24" vType="DEFAULT_VEHTYPE" speedFactor="1.12" vaporized="">
        <emissions CO_abs="7197.42" CO2_abs="773361.85" HC_abs="47.88" PMx_abs="50.62" NOx_abs="294.73" fuel_abs="250711.57" electricity_abs="0.00"/>
    </tripinfo>
    <tripinfo id="36" depart="144.00" departLane="28553544#2_0" departPos="19.37" departSpeed="14.18" departDelay="0.00" arrival="307.00" arrivalLane="747854793_1" arrivalPos="38.35" arrivalSpeed="27.99" duration="163.00" routeLength="2311.47" waitingTime="24.00" waitingCount="2" stopTime="0.00" timeLoss="68.46" rerouteNo="0" devices="tripinfo_36 emissions_36" vType="DEFAULT_VEHTYPE" speedFactor="1.02" vaporized="">
        <emissions CO_abs="9740.96" CO2_abs="797279.35" HC_abs="65.08" PMx_abs="69.29" NOx_abs="313.84" fuel_abs="258464.05" electricity_abs="0.00"/>
    </tripinfo>
    <tripinfo id="35" depart="140.00" departLane="28539862#0_0" departPos="2.99" departSpeed="12.51" departDelay="0.00" arrival="312.00" arrivalLane="-747447017#0_1" arrivalPos="14.06" arrivalSpeed="11.99" duration="172.00" routeLength="1842.86" waitingTime="24.00" waitingCount="3" stopTime="0.00" timeLoss="65.05" rerouteNo="0" devices="tripinfo_35 emissions_35" vType="DEFAULT_VEHTYPE" speedFactor="0.90" vaporized="">
        <emissions CO_abs="4957.96" CO2_abs="570398.67" HC_abs="33.09" PMx_abs="47.30" NOx_abs="210.05" fuel_abs="184914.38" electricity_abs="0.00"/>
    </tripinfo>
    <tripinfo id="42" depart="168.00" departLane="354718302#2_0" departPos="32.72" departSpeed="15.29" departDelay="0.00" arrival="315.00" arrivalLane="28536354#0_0" arrivalPos="33.59" arrivalSpeed="12.51" duration="147.00" routeLength="1449.76" waitingTime="18.00" waitingCount="2" stopTime="0.00" timeLoss="56.67" rerouteNo="0" devices="tripinfo_42 emissions_42" vType="DEFAULT_VEHTYPE" speedFactor="1.10" vaporized="">
        <emissions CO_abs="4558.91" CO2_abs="505586.46" HC_abs="30.28" PMx_abs="37.66" NOx_abs="187.32" fuel_abs="163902.96" electricity_abs="0.00"/>
    </tripinfo>
    <tripinfo id="53" depart="212.00" departLane="747228979_1" departPos="10.39" departSpeed="22.71" departDelay="0.00" arrival="319.00" arrivalLane="745055576#2_1" arrivalPos="11.12" arrivalSpeed="10.08" duration="107.00" routeLength="944.07" waitingTime="16.00" waitingCount="3" stopTime="0.00" timeLoss="44.74" rerouteNo="0" devices="tripinfo_53 emissions_53" vType="DEFAULT_VEHTYPE" speedFactor="1.02" vaporized="">
        <emissions CO_abs="1921.67" CO2_abs="319798.09" HC_abs="12.77" PMx_abs="21.88" NOx_abs="109.08" fuel_abs="103673.71" electricity_abs="0.00"/>
    </tripinfo>
    <tripinfo id="19" depart="76.00" departLane="-706539634#1_0" departPos="15.13" departSpeed="5.75" departDelay="0.00" arrival="322.00" arrivalLane="-792388510#0_0" arrivalPos="0.68" arrivalSpeed="10.52" duration="246.00" routeLength="2700.40" waitingTime="4.00" waitingCount="1" stopTime="0.00" timeLoss="46.38" rerouteNo="0" devices="tripinfo_19 emissions_19" vType="DEFAULT_VEHTYPE" speedFactor="0.87" vaporized="">
        <emissions CO_abs="5472.02" CO2_abs="680104.41" HC_abs="36.76" PMx_abs="66.99" NOx_abs="245.62" fuel_abs="220479.78" electricity_abs="0.00"/>
    </tripinfo>
    <tripinfo id="55" depart="220.00" departLane="-23296748#2_0" departPos="24.68" departSpeed="14.66" departDelay="0.00" arrival="327.00" arrivalLane="23296777#3_0" arrivalPos="19.93" arrivalSpeed="13.72" duration="107.00" routeLength="1001.08" waitingTime="0.00" waitingCount="0" stopTime="0.00" timeLoss="23.61" rerouteNo="0" devices="tripinfo_55 emissions_55" vType="DEFAULT_VEHTYPE" speedFactor="1.06" vaporized="">
        <emissions CO_abs="1767.14" CO2_abs="308394.30" HC_abs="11.70" PMx_abs="22.09" NOx_abs="102.49" fuel_abs="99976.81" electricity_abs="0.00"/>
    </tripinfo>
    <tripinfo id="18" depart="72.00" departLane="453672432#0_2" departPos="3.06" departSpeed="28.01" departDelay="0.00" arrival="333.00" arrivalLane="-15089975_1" arrivalPos="0.56" arrivalSpeed="7.43" duration="261.00" routeLength="2739.73" waitingTime="81.00" waitingCount="5" stopTime="0.00" timeLoss="137.64" rerouteNo="0" devices="tripinfo_18 emissions_18" vType="DEFAULT_VEHTYPE" speedFactor="1.01" vaporized="">
        <emissions CO_abs="8010.88" CO2_abs="863082.07" HC_abs="53.74" PMx_abs="71.82" NOx_abs="327.21" fuel_abs="279798.47" electricity_abs="0.00"/>
    </tripinfo>
    <tripinfo id="25" depart="100.00" departLane="96487804#0_0" departPos="13.64" departSpeed="8.29" departDelay="0.00" arrival="337.00" arrivalLane="29001191#1_1" arrivalPos="43.09" arrivalSpeed="12.74" duration="237.00" routeLength="1585.88" waitingTime="83.00" waitingCount="4" stopTime="0.00" timeLoss="130.13" rerouteNo="0" devices="tripinfo_25 emissions_25" vType="DEFAULT_VEHTYPE" speedFactor="0.99" vaporized="">
        <emissions CO_abs="5673.27" CO2_abs="718981.34" HC_abs="37.60" PMx_abs="42.98" NOx_abs="271.15" fuel_abs="233082.80" electricity_abs="0.00"/>
    </tripinfo>
    <tripinfo id="30" depart="120.00" departLane="-4940249#1_0" departPos="0.99" departSpeed="6.96" departDelay="0.00" arrival="337.00" arrivalLane="800662538#2_0" arrivalPos="168.65" arrivalSpeed="10.62" duration="217.00" routeLength="1815.86" waitingTime="55.00" waitingCount="3" stopTime="0.00" timeLoss="100.12" rerouteNo="0" devices="tripinfo_30 emissions_30" vType="DEFAULT_VEHTYPE" speedFactor="0.83" vaporized="">
        <emissions CO_abs="4399.73" CO2_abs="621072.05" HC_abs="29.30" PMx_abs="44.11" NOx_abs="225.10" fuel_abs="201342.59" electricity_abs="0.00"/>
    </tripinfo>
    <tripinfo id="45" depart="180.00" departLane="226831899#1_0" departPos="16.89" departSpeed="8.53" departDelay="0.00" arrival="337.00" arrivalLane="814837403#2_0" arrivalPos="3.03" arrivalSpeed="10.99" duration="157.00" routeLength="1395.20" waitingTime="45.00" waitingCount="2" stopTime="0.00" timeLoss="87.15" rerouteNo="0" devices="tripinfo_45 emissions_45" vType="DEFAULT_VEHTYPE" speedFactor="1.02" vaporized="">
        <emissions CO_abs="5693.10" CO2_abs="590972.59" HC_abs="37.76" PMx_abs="38.51" NOx_abs="225.18" fuel_abs="191583.62" electricity_abs="0.00"/>
    </tripinfo>
    <tripinfo id="8" depart="32.00" departLane="744634701#1_0" departPos="48.94" departSpeed="7.69" departDelay="0.00" arrival="340.00" arrivalLane="440588496#2_0" arrivalPos="22.60" arrivalSpeed="9.16" duration="308.00" routeLength="3333.51" waitingTime="34.00" waitingCount="2" stopTime="0.00" timeLoss="88.65" rerouteNo="0" devices="tripinfo_8 emissions_8" vType="DEFAULT_VEHTYPE" speedFactor="0.92" vaporized="">
        <emissions CO_abs="7551.74" CO2_abs="924183.21" HC_abs="50.42" PMx_abs="80.25" NOx_abs="337.37" fuel_abs="299606.49" electricity_abs="0.00"/>
    </tripinfo>
    <tripinfo id="28" depart="112.00" departLane="-706539634#3_0" departPos="19.21" departSpeed="9.86" departDelay="0.00" arrival="345.00" arrivalLane="-1314651751#0_1" arrivalPos="46.31" arrivalSpeed="9.28" duration="233.00" routeLength="2543.55" waitingTime="50.00" waitingCount="3" stopTime="0.00" timeLoss="97.57" rerouteNo="0" devices="tripinfo_28 emissions_28" vType="DEFAULT_VEHTYPE" speedFactor="0.94" vaporized="">
        <emissions CO_abs="7886.04" CO2_abs="832550.66" HC_abs="52.69" PMx_abs="68.96" NOx_abs="313.08" fuel_abs="269899.81" electricity_abs="0.00"/>
    </tripinfo>
    <tripinfo id="27" depart="108.00" departLane="745542369#1_0" departPos="20.11" departSpeed="28.33" departDelay="0.00" arrival="352.00" arrivalLane="706539634#3_0" arrivalPos="35.29" arrivalSpeed="13.19" duration="244.00" routeLength="2118.77" waitingTime="74.00" waitingCount="2" stopTime="0.00" timeLoss="113.28" rerouteNo="0" devices="tripinfo_27 emissions_27" vType="DEFAULT_VEHTYPE" speedFactor="1.02" vaporized="">
        <emissions CO_abs="5443.98" CO2_abs="670631.03" HC_abs="36.55" PMx_abs="53.11" NOx_abs="251.94" fuel_abs="217409.19" electricity_abs="0.00"/>
    </tripinfo>
    <tripinfo id="32" depart="128.00" departLane="32488019#3_0" departPos="17.16" departSpeed="4.89" departDelay="0.00" arrival="359.00" arrivalLane="135048803#4_1" arrivalPos="31.20" arrivalSpeed="29.36" duration="231.00" routeLength="3893.05" waitingTime="6.00" waitingCount="2" stopTime="0.00" timeLoss="61.48" rerouteNo="0" devices="tripinfo_32 emissions_32" vType="DEFAULT_VEHTYPE" speedFactor="1.07" vaporized="">
        <emissions CO_abs="14729.67" CO2_abs="1166980.15" HC_abs="98.71" PMx_abs="115.17" NOx_abs="458.50" fuel_abs="378314.87" electricity_abs="0.00"/>
    </tripinfo>
    <tripinfo id="38" depart="152.00" departLane="-27274183#4_0" departPos="2.68" departSpeed="14.77" departDelay="0.00" arrival="359.00" arrivalLane="28996951_0" arrivalPos="30.72" arrivalSpeed="11.88" duration="207.00" routeLength="2995.41" waitingTime="4.00" waitingCount="1" stopTime="0.00" timeLoss="45.13" rerouteNo="0" devices="tripinfo_38 emissions_38" vType="DEFAULT_VEHTYPE" speedFactor="1.06" vaporized="">
        <emissions CO_abs="8017.20" CO2_abs="742072.96" HC_abs="54.15" PMx_abs="78.63" NOx_abs="277.86" fuel_abs="240568.41" electricity_abs="0.00"/>
    </tripinfo>
    <tripinfo id="54" depart="216.00" departLane="747228978#1_1" departPos="25.71" departSpeed="25.78" departDelay="0.00" arrival="363.00" arrivalLane="800671112#2_1" arrivalPos="28.94" arrivalSpeed="11.98" duration="147.00" routeLength="1107.27" waitingTime="4.00" waitingCount="1" stopTime="0.00" timeLoss="31.71" rerouteNo="0" devices="tripinfo_54 emissions_54" vType="DEFAULT_VEHTYPE" speedFactor="0.93" vaporized="">
        <emissions CO_abs="2029.39" CO2_abs="328013.76" HC_abs="13.50" PMx_abs="24.01" NOx_abs="117.57" fuel_abs="106337.39" electricity_abs="0.00"/>
    </tripinfo>
    <tripinfo id="56" depart="224.00" departLane="-215516155#1_0" departPos="9.84" departSpeed="15.52" departDelay="0.00" arrival="371.00" arrivalLane="623260830#0_0" arrivalPos="8.04" arrivalSpeed="10.56" duration="147.00" routeLength="1520.82" waitingTime="0.00" waitingCount="0" stopTime="0.00" timeLoss="28.74" rerouteNo="0" devices="tripinfo_56 emissions_56" vType="DEFAULT_VEHTYPE" speedFactor="1.12" vaporized="">
        <emissions CO_abs="2639.68" CO2_abs="428101.56" HC_abs="17.50" PMx_abs="33.56" NOx_abs="145.33" fuel_abs="138784.27" electricity_abs="0.00"/>
    </tripinfo>
    <tripinfo id="16" depart="64.00" departLane="745055576#2_1" departPos="0.67" departSpeed="11.43" departDelay="0.00" arrival="372.00" arrivalLane="28996007_0" arrivalPos="14.09" arrivalSpeed="11.11" duration="308.00" routeLength="3428.85" waitingTime="35.00" waitingCount="3" stopTime="0.00" timeLoss="103.52" rerouteNo="0" devices="tripinfo_16 emissions_16" vType="DEFAULT_VEHTYPE" speedFactor="1.03" vaporized="">
        <emissions CO_abs="11003.87" CO2_abs="1136265.25" HC_abs="73.17" PMx_abs="87.84" NOx_abs="425.17" fuel_abs="368358.63" electricity_abs="0.00"/>
    </tripinfo>
    <tripinfo id="41" depart="164.00" departLane="-1212504575_1" departPos="20.66" departSpeed="13.93" departDelay="0.00" arrival="383.00" arrivalLane="4940264_0" arrivalPos="11.99" arrivalSpeed="13.78" duration="219.00" routeLength="1286.90" waitingTime="91.00" waitingCount="5" stopTime="0.00" timeLoss="143.48" rerouteNo="0" devices="tripinfo_41 emissions_41" vType="DEFAULT_VEHTYPE" speedFactor="1.00" vaporized="">
        <emissions CO_abs="4129.59" CO2_abs="651460.27" HC_abs="27.33" PMx_abs="34.31" NOx_abs="235.73" fuel_abs="211194.07" electricity_abs="0.00"/>
    </tripinfo>
    <tripinfo id="43" depart="172.00" departLane="-747853030_0" departPos="3.68" departSpeed="12.49" departDelay="0.00" arrival="386.00" arrivalLane="29127552_2" arrivalPos="133.95" arrivalSpeed="24.68" duration="214.00" routeLength="1581.65" waitingTime="103.00" waitingCount="3" stopTime="0.00" timeLoss="135.73" rerouteNo="0" devices="tripinfo_43 emissions_43" vType="DEFAULT_VEHTYPE" speedFactor="0.90" vaporized="">
        <emissions CO_abs="5530.93" CO2_abs="664310.33" HC_abs="36.94" PMx_abs="45.59" NOx_abs="253.56" fuel_abs="215359.89" electricity_abs="0.00"/>
    </tripinfo>
    <tripinfo id="68" depart="272.00" departLane="-745055573#0_1" departPos="13.83" departSpeed="11.69" departDelay="0.00" arrival="388.00" arrivalLane="33423429_0" arrivalPos="27.28" arrivalSpeed="11.92" duration="116.00" routeLength="1665.14" waitingTime="1.00" waitingCount="1" stopTime="0.00" timeLoss="23.34" rerouteNo="0" devices="tripinfo_68 emissions_68" vType="DEFAULT_VEHTYPE" speedFactor="1.05" vaporized="">
        <emissions CO_abs="4963.97" CO2_abs="450515.32" HC_abs="33.27" PMx_abs="44.73" NOx_abs="172.23" fuel_abs="146049.77" electricity_abs="0.00"/>
    </tripinfo>
    <tripinfo id="21" depart="84.00" departLane="1314651743_2" departPos="3.94" departSpeed="3.74" departDelay="0.00" arrival="389.00" arrivalLane="-440588496#1_1" arrivalPos="22.95" arrivalSpeed="9.67" duration="305.00" routeLength="4181.47" waitingTime="17.00" waitingCount="2" stopTime="0.00" timeLoss="99.24" rerouteNo="0" devices="tripinfo_21 emissions_21" vType="DEFAULT_VEHTYPE" speedFactor="1.13" vaporized="">
        <emissions CO_abs="14898.73" CO2_abs="1359098.28" HC_abs="99.29" PMx_abs="113.56" NOx_abs="514.91" fuel_abs="440596.28" electricity_abs="0.00"/>
    </tripinfo>
    <tripinfo id="58" depart="232.00" departLane="-747853025#3_0" departPos="0.04" departSpeed="12.76" departDelay="0.00" arrival="399.00" arrivalLane="747175704#1_0" arrivalPos="173.99" arrivalSpeed="24.82" duration="167.00" routeLength="1403.57" waitingTime="44.00" waitingCount="3" stopTime="0.00" timeLoss="75.02" rerouteNo="0" devices="tripinfo_58 emissions_58" vType="DEFAULT_VEHTYPE" speedFactor="0.92" vaporized="">
        <emissions CO_abs="3479.83" CO2_abs="483843.06" HC_abs="23.19" PMx_abs="37.34" NOx_abs="178.04" fuel_abs="156855.00" electricity_abs="0.00"/>
    </tripinfo>
    <tripinfo id="37" depart="148.00" departLane="987614114#0_0" departPos="5.26" departSpeed="7.56" departDelay="0.00" arrival="405.00" arrivalLane="27260010_1" arrivalPos="45.52" arrivalSpeed="23.28" duration="257.00" routeLength="2644.41" waitingTime="45.00" waitingCount="5" stopTime="0.00" timeLoss="110.65" rerouteNo="0" devices="tripinfo_37 emissions_37" vType="DEFAULT_VEHTYPE" speedFactor="0.88" vaporized="">
        <emissions CO_abs="7834.58" CO2_abs="898021.28" HC_abs="52.24" PMx_abs="70.83" NOx_abs="330.28" fuel_abs="291124.37" electricity_abs="0.00"/>
    </tripinfo>