<?xml version="1.0" encoding="UTF-8"?>

<!-- generated on 2026-02-18T20:44:55.850119+08:00 by Eclipse SUMO GUI 1.25.0
<sumoConfiguration xmlns:xsi="http://www.w3.org/2001/XMLSchema-instance" xsi:noNamespaceSchemaLocation="http://sumo.dlr.de/xsd/sumoConfiguration.xsd">

    <input>
        <net-file value="c:\Users\otaku\Documents\Thesis\apriori_civiq\scenarios/bgc_full/final_map.net.xml"/>
        <route-files value="c:\Users\otaku\Documents\Thesis\apriori_civiq\scenarios/bgc_full/wardrop_routes_highEnough.rou.xml"/>
        <additional-files value="c:\Users\otaku\Documents\Thesis\apriori_civiq\scenarios/bgc_full/osm.poly.xml.gz,c:\Users\otaku\Documents\Thesis\apriori_civiq\scenarios/bgc_full/output.add.xml,c:\Users\otaku\Documents\Thesis\apriori_civiq\scenarios/bgc_full/vtypes.add.xml"/>
    </input>

    <output>
        <summary-output value="c:\Users\otaku\Documents\Thesis\apriori_civiq\scenarios/bgc_full/data\summary_highEnough.xml"/>
        <tripinfo-output value="c:\Users\otaku\Documents\Thesis\apriori_civiq\scenarios/bgc_full/data\tripinfo_highEnough.xml"/>
        <statistic-output value="c:\Users\otaku\Documents\Thesis\apriori_civiq\scenarios/bgc_full/data\stats_highEnough.xml"/>
    </output>

    <time>
        <step-length value="1.0"/>
    </time>

    <processing>
        <ignore-route-errors value="true"/>
        <time-to-teleport value="-1"/>
        <tls.actuated.jam-threshold value="30"/>
    </processing>

    <routing>
        <device.rerouting.adaptation-steps value="18"/>
        <device.rerouting.adaptation-interval value="10"/>
    </routing>

    <report>
        <verbose value="true"/>
        <duration-log.statistics value="true"/>
        <no-step-log value="true"/>
    </report>

    <emissions>
        <device.emissions.probability value="1.0"/>
    </emissions>

    <traci_server>
        <remote-port value="50996"/>
    </traci_server>

    <gui_only>
        <gui-settings-file value="c:\Users\otaku\Documents\Thesis\apriori_civiq\scenarios/bgc_full/osm.view.xml"/>
        <start value="true"/>
    </gui_only>

</sumoConfiguration>
-->

<tripinfos xmlns:xsi="http://www.w3.org/2001/XMLSchema-instance" xsi:noNamespaceSchemaLocation="http://sumo.dlr.de/xsd/tripinfo_file.xsd">
    <tripinfo id="23" depart="12.00" departLane="313048179#5_0" departPos="15.39" departSpeed="12.83" departDelay="0.50" arrival="52.00" arrivalLane="28995163#11_0" arrivalPos="23.68" arrivalSpeed="10.09" duration="40.00" routeLength="411.90" waitingTime="0.00" waitingCount="0" stopTime="0.00" timeLoss="12.94" rerouteNo="0" devices="tripinfo_23 emissions_23" vType="DEFAULT_VEHTYPE" speedFactor="1.15" vaporized="">
        <emissions CO_abs="826.59" CO2_abs="130277.38" HC_abs="5.48" PMx_abs="9.88" NOx_abs="43.96" fuel_abs="42233.87" electricity_abs="0.00"/>
    </tripinfo>
    <tripinfo id="6" depart="3.00" departLane="-586354143_0" departPos="20.30" departSpeed="14.13" departDelay="0.00" arrival="54.00" arrivalLane="28553554#10_0" arrivalPos="24.00" arrivalSpeed="13.80" duration="51.00" routeLength="624.93" waitingTime="0.00" waitingCount="0" stopTime="0.00" timeLoss="5.84" rerouteNo="0" devices="tripinfo_6 emissions_6" vType="DEFAULT_VEHTYPE" speedFactor="1.02" vaporized="">
        <emissions CO_abs="656.97" CO2_abs="114878.72" HC_abs="4.40" PMx_abs="13.50" NOx_abs="40.17" fuel_abs="37242.22" electricity_abs="0.00"/>
    </tripinfo>
    <tripinfo id="59" depart="30.00" departLane="183688028#0_0" departPos="56.58" departSpeed="15.10" departDelay="0.50" arrival="62.00" arrivalLane="-440588496#5_1" arrivalPos="27.03" arrivalSpeed="10.97" duration="32.00" routeLength="323.37" waitingTime="0.00" waitingCount="0" stopTime="0.00" timeLoss="8.49" rerouteNo="0" devices="tripinfo_59 emissions_59" vType="DEFAULT_VEHTYPE" speedFactor="1.09" vaporized="">
        <emissions CO_abs="535.61" CO2_abs="88712.58" HC_abs="3.56" PMx_abs="6.97" NOx_abs="29.59" fuel_abs="28759.26" electricity_abs="0.00"/>
    </tripinfo>
    <tripinfo id="46" depart="23.00" departLane="747228973#1_0" departPos="14.88" departSpeed="22.15" departDelay="0.00" arrival="69.00" arrivalLane="-747447017#1_1" arrivalPos="12.31" arrivalSpeed="13.64" duration="46.00" routeLength="576.44" waitingTime="2.00" waitingCount="1" stopTime="0.00" timeLoss="15.94" rerouteNo="0" devices="tripinfo_46 emissions_46" vType="DEFAULT_VEHTYPE" speedFactor="1.00" vaporized="">
        <emissions CO_abs="1878.65" CO2_abs="183445.74" HC_abs="12.49" PMx_abs="14.92" NOx_abs="69.60" fuel_abs="59470.01" electricity_abs="0.00"/>
    </tripinfo>
    <tripinfo id="107" depart="54.00" departLane="747228984#1_1" departPos="48.46" departSpeed="12.37" departDelay="0.50" arrival="71.00" arrivalLane="747228976#1_2" arrivalPos="59.33" arrivalSpeed="14.96" duration="17.00" routeLength="185.50" waitingTime="0.00" waitingCount="0" stopTime="0.00" timeLoss="8.45" rerouteNo="0" devices="tripinfo_107 emissions_107" vType="DEFAULT_VEHTYPE" speedFactor="1.11" vaporized="">
        <emissions CO_abs="584.40" CO2_abs="70994.29" HC_abs="3.87" PMx_abs="5.35" NOx_abs="24.94" fuel_abs="23015.22" electricity_abs="0.00"/>
    </tripinfo>
</tripinfos>
