<?xml version="1.0" encoding="UTF-8"?>

<!-- generated on 2026-03-08T17:39:20.640483+08:00 by Eclipse SUMO GUI 1.25.0
<sumoConfiguration xmlns:xsi="http://www.w3.org/2001/XMLSchema-instance" xsi:noNamespaceSchemaLocation="http://sumo.dlr.de/xsd/sumoConfiguration.xsd">

    <input>
        <net-file value="c:\Users\otaku\Documents\Thesis\apriori_civiq\scenarios/bgc_full/final_map.net.xml"/>
        <route-files value="c:\Users\otaku\Documents\Thesis\apriori_civiq\scenarios/bgc_full/wardrop_routes_highEnough.rou.xml"/>
        <additional-files value="c:\Users\otaku\Documents\Thesis\apriori_civiq\scenarios/bgc_full/osm.poly.xml.gz,c:\Users\otaku\Documents\Thesis\apriori_civiq\scenarios/bgc_full/output.add.xml,c:\Users\otaku\Documents\Thesis\apriori_civiq\scenarios/bgc_full/vtypes.add.xml"/>
    </input>

    <output>
        <summary-output value="c:\Users\otaku\Documents\Thesis\apriori_civiq\scenarios/bgc_full/data\summary_highEnough.xml"/>
        <tripinfo-output value="c:\Users\otaku\Documents\Thesis\apriori_civiq\scenarios/bgc_full/data\tripinfo_highEnough.xml"/>
        <statistic-output value="c:\Users\otaku\Documents\Thesis\apriori_civiq\scenarios/bgc_full/data\stats_highEnough.xml"/>
    </output>

    <time>
        <step-length value="1.0"/>
    </time>

    <processing>
        <ignore-route-errors value="true"/>
        <time-to-teleport value="-1"/>
        <tls.actuated.jam-threshold value="30"/>
    </processing>

    <routing>
        <device.rerouting.adaptation-steps value="18"/>
        <device.rerouting.adaptation-interval value="10"/>
    </routing>

    <report>
        <verbose value="true"/>
        <duration-log.statistics value="true"/>
        <no-step-log value="true"/>
    </report>

    <emissions>
        <device.emissions.probability value="1.0"/>
    </emissions>

    <traci_server>
        <remote-port value="56423"/>
    </traci_server>

    <gui_only>
        <gui-settings-file value="c:\Users\otaku\Documents\Thesis\apriori_civiq\scenarios/bgc_full/osm.view.xml"/>
        <start value="true"/>
    </gui_only>

</sumoConfiguration>
-->

<tripinfos xmlns:xsi="http://www.w3.org/2001/XMLSchema-instance" xsi:noNamespaceSchemaLocation="http://sumo.dlr.de/xsd/tripinfo_file.xsd">
    <tripinfo id="23" depart="12.00" departLane="313048179#5_0" departPos="15.39" departSpeed="12.83" departDelay="0.50" arrival="52.00" arrivalLane="28995163#11_0" arrivalPos="23.68" arrivalSpeed="10.09" duration="40.00" routeLength="411.90" waitingTime="0.00" waitingCount="0" stopTime="0.00" timeLoss="12.94" rerouteNo="0" devices="tripinfo_23 emissions_23" vType="DEFAULT_VEHTYPE" speedFactor="1.15" vaporized="">
        <emissions CO_abs="826.59" CO2_abs="130277.38" HC_abs="5.48" PMx_abs="9.88" NOx_abs="43.96" fuel_abs="42233.87" electricity_abs="0.00"/>
    </tripinfo>
    <tripinfo id="6" depart="3.00" departLane="-586354143_0" departPos="20.30" departSpeed="14.13" departDelay="0.00" arrival="54.00" arrivalLane="28553554#10_0" arrivalPos="24.00" arrivalSpeed="13.80" duration="51.00" routeLength="624.93" waitingTime="0.00" waitingCount="0" stopTime="0.00" timeLoss="5.84" rerouteNo="0" devices="tripinfo_6 emissions_6" vType="DEFAULT_VEHTYPE" speedFactor="1.02" vaporized="">
        <emissions CO_abs="656.97" CO2_abs="114878.72" HC_abs="4.40" PMx_abs="13.50" NOx_abs="40.17" fuel_abs="37242.22" electricity_abs="0.00"/>
    </tripinfo>
    <tripinfo id="59" depart="30.00" departLane="183688028#0_0" departPos="56.58" departSpeed="15.10" departDelay="0.50" arrival="62.00" arrivalLane="-440588496#5_1" arrivalPos="27.03" arrivalSpeed="10.97" duration="32.00" routeLength="323.37" waitingTime="0.00" waitingCount="0" stopTime="0.00" timeLoss="8.49" rerouteNo="0" devices="tripinfo_59 emissions_59" vType="DEFAULT_VEHTYPE" speedFactor="1.09" vaporized="">
        <emissions CO_abs="535.61" CO2_abs="88712.58" HC_abs="3.56" PMx_abs="6.97" NOx_abs="29.59" fuel_abs="28759.26" electricity_abs="0.00"/>
    </tripinfo>
    <tripinfo id="46" depart="23.00" departLane="747228973#1_0" departPos="14.88" departSpeed="22.15" departDelay="0.00" arrival="69.00" arrivalLane="-747447017#1_1" arrivalPos="12.31" arrivalSpeed="13.64" duration="46.00" routeLength="576.44" waitingTime="2.00" waitingCount="1" stopTime="0.00" timeLoss="15.94" rerouteNo="0" devices="tripinfo_46 emissions_46" vType="DEFAULT_VEHTYPE" speedFactor="1.00" vaporized="">
        <emissions CO_abs="1878.65" CO2_abs="183445.74" HC_abs="12.49" PMx_abs="14.92" NOx_abs="69.60" fuel_abs="59470.01" electricity_abs="0.00"/>
    </tripinfo>
    <tripinfo id="107" depart="54.00" departLane="747228984#1_1" departPos="48.46" departSpeed="12.37" departDelay="0.50" arrival="71.00" arrivalLane="747228976#1_2" arrivalPos="59.33" arrivalSpeed="14.96" duration="17.00" routeLength="185.50" waitingTime="0.00" waitingCount="0" stopTime="0.00" timeLoss="8.45" rerouteNo="0" devices="tripinfo_107 emissions_107" vType="DEFAULT_VEHTYPE" speedFactor="1.11" vaporized="">
        <emissions CO_abs="584.40" CO2_abs="70994.29" HC_abs="3.87" PMx_abs="5.35" NOx_abs="24.94" fuel_abs="23015.22" electricity_abs="0.00"/>
    </tripinfo>
    <tripinfo id="47" depart="24.00" departLane="749508466#1_0" departPos="40.76" departSpeed="31.09" departDelay="0.50" arrival="90.00" arrivalLane="747009416#1_0" arrivalPos="12.73" arrivalSpeed="14.45" duration="66.00" routeLength="888.72" waitingTime="0.00" waitingCount="0" stopTime="0.00" timeLoss="10.83" rerouteNo="0" devices="tripinfo_47 emissions_47" vType="DEFAULT_VEHTYPE" speedFactor="1.12" vaporized="">
        <emissions CO_abs="1486.74" CO2_abs="186550.45" HC_abs="9.91" PMx_abs="16.66" NOx_abs="66.19" fuel_abs="60476.85" electricity_abs="0.00"/>
    </tripinfo>
    <tripinfo id="34" depart="17.00" departLane="-747853025#3_0" departPos="0.24" departSpeed="10.70" departDelay="0.00" arrival="92.00" arrivalLane="-745055614#1_0" arrivalPos="13.06" arrivalSpeed="5.18" duration="75.00" routeLength="515.64" waitingTime="0.00" waitingCount="0" stopTime="0.00" timeLoss="7.11" rerouteNo="0" devices="tripinfo_34 emissions_34" vType="DEFAULT_VEHTYPE" speedFactor="0.77" vaporized="">
        <emissions CO_abs="280.39" CO2_abs="111569.97" HC_abs="1.86" PMx_abs="8.82" NOx_abs="37.31" fuel_abs="36169.61" electricity_abs="0.00"/>
    </tripinfo>
    <tripinfo id="11" depart="6.00" departLane="-23296771#2_0" departPos="15.53" departSpeed="6.02" departDelay="0.50" arrival="97.00" arrivalLane="-23296768#1_0" arrivalPos="257.33" arrivalSpeed="12.01" duration="91.00" routeLength="841.99" waitingTime="0.00" waitingCount="0" stopTime="0.00" timeLoss="18.89" rerouteNo="0" devices="tripinfo_11 emissions_11" vType="DEFAULT_VEHTYPE" speedFactor="0.93" vaporized="">
        <emissions CO_abs="1193.36" CO2_abs="234529.04" HC_abs="7.91" PMx_abs="17.99" NOx_abs="77.08" fuel_abs="76030.89" electricity_abs="0.00"/>
    </tripinfo>
    <tripinfo id="61" depart="31.00" departLane="204841599_1" departPos="14.92" departSpeed="24.16" departDelay="0.50" arrival="112.00" arrivalLane="27274183#4_0" arrivalPos="20.68" arrivalSpeed="13.43" duration="81.00" routeLength="473.33" waitingTime="17.00" waitingCount="2" stopTime="0.00" timeLoss="36.55" rerouteNo="0" devices="tripinfo_61 emissions_61" vType="DEFAULT_VEHTYPE" speedFactor="1.02" vaporized="">
        <emissions CO_abs="751.84" CO2_abs="185386.24" HC_abs="4.97" PMx_abs="9.65" NOx_abs="61.92" fuel_abs="60099.62" electricity_abs="0.00"/>
    </tripinfo>
    <tripinfo id="134" depart="67.00" departLane="-1292171262_0" departPos="4.39" departSpeed="8.19" departDelay="0.00" arrival="115.00" arrivalLane="555335240#5_0" arrivalPos="40.67" arrivalSpeed="13.44" duration="48.00" routeLength="512.79" waitingTime="0.00" waitingCount="0" stopTime="0.00" timeLoss="6.44" rerouteNo="0" devices="tripinfo_134 emissions_134" vType="DEFAULT_VEHTYPE" speedFactor="0.98" vaporized="">
        <emissions CO_abs="652.39" CO2_abs="122919.48" HC_abs="4.35" PMx_abs="12.07" NOx_abs="41.95" fuel_abs="39848.86" electricity_abs="0.00"/>
    </tripinfo>
    <tripinfo id="142" depart="71.00" departLane="-1292162272#0_1" departPos="0.06" departSpeed="13.12" departDelay="0.00" arrival="123.00" arrivalLane="-32906103#1_1" arrivalPos="15.61" arrivalSpeed="12.61" duration="52.00" routeLength="551.41" waitingTime="0.00" waitingCount="0" stopTime="0.00" timeLoss="8.32" rerouteNo="0" devices="tripinfo_142 emissions_142" vType="DEFAULT_VEHTYPE" speedFactor="1.18" vaporized="">
        <emissions CO_abs="673.37" CO2_abs="129311.76" HC_abs="4.49" PMx_abs="12.26" NOx_abs="43.76" fuel_abs="41921.12" electricity_abs="0.00"/>
    </tripinfo>
    <tripinfo id="7" depart="4.00" departLane="744645401#1_0" departPos="27.25" departSpeed="30.30" departDelay="0.50" arrival="125.00" arrivalLane="-1065726174_0" arrivalPos="63.66" arrivalSpeed="14.06" duration="121.00" routeLength="1352.74" waitingTime="18.00" waitingCount="4" stopTime="0.00" timeLoss="60.36" rerouteNo="0" devices="tripinfo_7 emissions_7" vType="DEFAULT_VEHTYPE" speedFactor="1.09" vaporized="">
        <emissions CO_abs="5021.03" CO2_abs="493870.53" HC_abs="33.47" PMx_abs="36.78" NOx_abs="186.14" fuel_abs="160104.46" electricity_abs="0.00"/>
    </tripinfo>
    <tripinfo id="53" depart="27.00" departLane="747228979_1" departPos="10.39" departSpeed="22.71" departDelay="0.50" arrival="126.00" arrivalLane="745055576#2_1" arrivalPos="11.12" arrivalSpeed="10.58" duration="99.00" routeLength="961.69" waitingTime="3.00" waitingCount="1" stopTime="0.00" timeLoss="33.81" rerouteNo="0" devices="tripinfo_53 emissions_53" vType="DEFAULT_VEHTYPE" speedFactor="1.02" vaporized="">
        <emissions CO_abs="1948.28" CO2_abs="300789.49" HC_abs="12.93" PMx_abs="21.89" NOx_abs="101.72" fuel_abs="97511.20" electricity_abs="0.00"/>
    </tripinfo>
    <tripinfo id="114" depart="57.00" departLane="-272735306#3_0" departPos="1.72" departSpeed="8.29" departDelay="0.00" arrival="126.00" arrivalLane="28539702#7_0" arrivalPos="16.61" arrivalSpeed="12.53" duration="69.00" routeLength="724.70" waitingTime="0.00" waitingCount="0" stopTime="0.00" timeLoss="12.02" rerouteNo="0" devices="tripinfo_114 emissions_114" vType="DEFAULT_VEHTYPE" speedFactor="0.94" vaporized="">
        <emissions CO_abs="1147.11" CO2_abs="203403.19" HC_abs="7.62" PMx_abs="17.26" NOx_abs="68.10" fuel_abs="65940.41" electricity_abs="0.00"/>
    </tripinfo>
    <tripinfo id="144" depart="72.00" departLane="29001191#1_0" departPos="38.23" departSpeed="14.84" departDelay="0.00" arrival="128.00" arrivalLane="1362795132#3_0" arrivalPos="15.11" arrivalSpeed="8.63" duration="56.00" routeLength="542.66" waitingTime="0.00" waitingCount="0" stopTime="0.00" timeLoss="8.59" rerouteNo="0" devices="tripinfo_144 emissions_144" vType="DEFAULT_VEHTYPE" speedFactor="1.07" vaporized="">
        <emissions CO_abs="681.95" CO2_abs="127705.65" HC_abs="4.53" PMx_abs="10.74" NOx_abs="43.23" fuel_abs="41400.40" electricity_abs="0.00"/>
    </tripinfo>
    <tripinfo id="71" depart="36.00" departLane="744640943#2_3" departPos="5.97" departSpeed="12.59" departDelay="0.50" arrival="132.00" arrivalLane="-32488152#0_0" arrivalPos="0.20" arrivalSpeed="11.58" duration="96.00" routeLength="1031.61" waitingTime="7.00" waitingCount="3" stopTime="0.00" timeLoss="27.95" rerouteNo="0" devices="tripinfo_71 emissions_71" vType="DEFAULT_VEHTYPE" speedFactor="0.91" vaporized="">
        <emissions CO_abs="2234.42" CO2_abs="289228.26" HC_abs="14.88" PMx_abs="24.38" NOx_abs="103.84" fuel_abs="93763.36" electricity_abs="0.00"/>
    </tripinfo>
    <tripinfo id="55" depart="28.00" departLane="-23296748#2_0" departPos="24.68" departSpeed="14.66" departDelay="0.50" arrival="134.00" arrivalLane="23296777#3_0" arrivalPos="19.93" arrivalSpeed="13.64" duration="106.00" routeLength="1001.08" waitingTime="0.00" waitingCount="0" stopTime="0.00" timeLoss="23.28" rerouteNo="0" devices="tripinfo_55 emissions_55" vType="DEFAULT_VEHTYPE" speedFactor="1.06" vaporized="">
        <emissions CO_abs="1736.68" CO2_abs="309346.57" HC_abs="11.50" PMx_abs="23.26" NOx_abs="103.30" fuel_abs="100285.61" electricity_abs="0.00"/>
    </tripinfo>
    <tripinfo id="88" depart="44.00" departLane="226831899#3_0" departPos="16.71" departSpeed="9.42" departDelay="0.00" arrival="140.00" arrivalLane="174398016#1_1" arrivalPos="77.69" arrivalSpeed="15.66" duration="96.00" routeLength="1073.90" waitingTime="12.00" waitingCount="2" stopTime="0.00" timeLoss="46.88" rerouteNo="0" devices="tripinfo_88 emissions_88" vType="DEFAULT_VEHTYPE" speedFactor="1.13" vaporized="">
        <emissions CO_abs="5165.38" CO2_abs="452200.50" HC_abs="34.22" PMx_abs="30.83" NOx_abs="176.01" fuel_abs="146595.15" electricity_abs="0.00"/>
    </tripinfo>
    <tripinfo id="133" depart="67.00" departLane="744649710_3" departPos="13.67" departSpeed="14.10" departDelay="0.50" arrival="140.00" arrivalLane="747228980_2" arrivalPos="43.41" arrivalSpeed="19.56" duration="73.00" routeLength="504.03" waitingTime="19.00" waitingCount="1" stopTime="0.00" timeLoss="48.27" rerouteNo="0" devices="tripinfo_133 emissions_133" vType="DEFAULT_VEHTYPE" speedFactor="1.09" vaporized="">
        <emissions CO_abs="1981.21" CO2_abs="269265.60" HC_abs="13.10" PMx_abs="14.19" NOx_abs="94.62" fuel_abs="87291.59" electricity_abs="0.00"/>
    </tripinfo>
    <tripinfo id="212" depart="107.00" departLane="-28553544#8_0" departPos="13.57" departSpeed="9.25" departDelay="1.00" arrival="140.00" arrivalLane="229492741#1_0" arrivalPos="0.20" arrivalSpeed="7.49" duration="33.00" routeLength="270.55" waitingTime="0.00" waitingCount="0" stopTime="0.00" timeLoss="11.28" rerouteNo="0" devices="tripinfo_212 emissions_212" vType="DEFAULT_VEHTYPE" speedFactor="1.03" vaporized="">
        <emissions CO_abs="428.50" CO2_abs="85108.53" HC_abs="2.84" PMx_abs="5.56" NOx_abs="27.18" fuel_abs="27590.83" electricity_abs="0.00"/>
    </tripinfo>
    <tripinfo id="210" depart="105.00" departLane="145087111#0_0" departPos="30.29" departSpeed="16.11" departDelay="0.00" arrival="141.00" arrivalLane="-28995163#4_0" arrivalPos="4.91" arrivalSpeed="13.50" duration="36.00" routeLength="375.00" waitingTime="0.00" waitingCount="0" stopTime="0.00" timeLoss="10.75" rerouteNo="0" devices="tripinfo_210 emissions_210" vType="DEFAULT_VEHTYPE" speedFactor="1.16" vaporized="">
        <emissions CO_abs="786.27" CO2_abs="123208.09" HC_abs="5.21" PMx_abs="9.02" NOx_abs="40.90" fuel_abs="39942.16" electricity_abs="0.00"/>
    </tripinfo>
    <tripinfo id="146" depart="73.00" departLane="792461827_0" departPos="37.89" departSpeed="4.05" departDelay="0.00" arrival="142.00" arrivalLane="-27274188_0" arrivalPos="40.83" arrivalSpeed="12.36" duration="69.00" routeLength="642.45" waitingTime="0.00" waitingCount="0" stopTime="0.00" timeLoss="12.44" rerouteNo="0" devices="tripinfo_146 emissions_146" vType="DEFAULT_VEHTYPE" speedFactor="0.90" vaporized="">
        <emissions CO_abs="1029.83" CO2_abs="190578.93" HC_abs="6.82" PMx_abs="13.42" NOx_abs="62.12" fuel_abs="61782.80" electricity_abs="0.00"/>
    </tripinfo>
    <tripinfo id="93" depart="47.00" departLane="-183688028#2_0" departPos="6.91" departSpeed="9.80" departDelay="0.50" arrival="143.00" arrivalLane="28553544#1_0" arrivalPos="137.63" arrivalSpeed="13.74" duration="96.00" routeLength="1075.10" waitingTime="0.00" waitingCount="0" stopTime="0.00" timeLoss="17.05" rerouteNo="0" devices="tripinfo_93 emissions_93" vType="DEFAULT_VEHTYPE" speedFactor="1.02" vaporized="">
        <emissions CO_abs="1692.63" CO2_abs="276632.80" HC_abs="11.25" PMx_abs="24.65" NOx_abs="94.00" fuel_abs="89680.38" electricity_abs="0.00"/>
    </tripinfo>
    <tripinfo id="136" depart="68.00" departLane="744649710_3" departPos="2.07" departSpeed="14.08" departDelay="0.00" arrival="146.00" arrivalLane="-747447020#1_0" arrivalPos="15.63" arrivalSpeed="12.68" duration="78.00" routeLength="870.87" waitingTime="2.00" waitingCount="1" stopTime="0.00" timeLoss="24.25" rerouteNo="0" devices="tripinfo_136 emissions_136" vType="DEFAULT_VEHTYPE" speedFactor="0.97" vaporized="">
        <emissions CO_abs="2272.66" CO2_abs="276838.14" HC_abs="15.08" PMx_abs="22.09" NOx_abs="99.27" fuel_abs="89746.58" electricity_abs="0.00"/>
    </tripinfo>
    <tripinfo id="154" depart="77.00" departLane="568142851#0_1" departPos="0.14" departSpeed="27.26" departDelay="0.00" arrival="153.00" arrivalLane="339318044#0_1" arrivalPos="60.05" arrivalSpeed="13.12" duration="76.00" routeLength="1340.32" waitingTime="2.00" waitingCount="1" stopTime="0.00" timeLoss="25.20" rerouteNo="0" devices="tripinfo_154 emissions_154" vType="DEFAULT_VEHTYPE" speedFactor="0.98" vaporized="">
        <emissions CO_abs="3869.50" CO2_abs="312964.42" HC_abs="26.08" PMx_abs="34.43" NOx_abs="121.17" fuel_abs="101457.88" electricity_abs="0.00"/>
    </tripinfo>
    <tripinfo id="45" depart="23.00" departLane="226831899#1_0" departPos="16.89" departSpeed="8.53" departDelay="0.50" arrival="155.00" arrivalLane="814837403#2_0" arrivalPos="3.03" arrivalSpeed="11.10" duration="132.00" routeLength="1395.20" waitingTime="18.00" waitingCount="2" stopTime="0.00" timeLoss="61.00" rerouteNo="0" devices="tripinfo_45 emissions_45" vType="DEFAULT_VEHTYPE" speedFactor="1.02" vaporized="">
        <emissions CO_abs="5489.46" CO2_abs="544454.18" HC_abs="36.37" PMx_abs="36.54" NOx_abs="204.63" fuel_abs="176502.64" electricity_abs="0.00"/>
    </tripinfo>
    <tripinfo id="175" depart="88.00" departLane="174398014#0_0" departPos="6.16" departSpeed="6.40" departDelay="0.50" arrival="156.00" arrivalLane="28996987#3_0" arrivalPos="51.06" arrivalSpeed="15.12" duration="68.00" routeLength="518.02" waitingTime="0.00" waitingCount="0" stopTime="0.00" timeLoss="13.16" rerouteNo="0" devices="tripinfo_175 emissions_175" vType="DEFAULT_VEHTYPE" speedFactor="1.15" vaporized="">
        <emissions CO_abs="999.24" CO2_abs="183993.19" HC_abs="6.61" PMx_abs="12.75" NOx_abs="62.34" fuel_abs="59647.94" electricity_abs="0.00"/>
    </tripinfo>
    <tripinfo id="14" depart="7.00" departLane="28536354#0_1" departPos="19.02" departSpeed="15.04" departDelay="0.00" arrival="159.00" arrivalLane="897106072#1_0" arrivalPos="25.69" arrivalSpeed="9.64" duration="152.00" routeLength="2523.82" waitingTime="1.00" waitingCount="1" stopTime="0.00" timeLoss="36.62" rerouteNo="0" devices="tripinfo_14 emissions_14" vType="DEFAULT_VEHTYPE" speedFactor="1.08" vaporized="">
        <emissions CO_abs="9219.91" CO2_abs="711706.07" HC_abs="61.85" PMx_abs="69.85" NOx_abs="280.01" fuel_abs="230722.56" electricity_abs="0.00"/>
    </tripinfo>
    <tripinfo id="68" depart="34.00" departLane="-745055573#0_1" departPos="13.83" departSpeed="11.69" departDelay="0.00" arrival="160.00" arrivalLane="33423429_0" arrivalPos="27.28" arrivalSpeed="11.87" duration="126.00" routeLength="1665.14" waitingTime="12.00" waitingCount="1" stopTime="0.00" timeLoss="34.21" rerouteNo="0" devices="tripinfo_68 emissions_68" vType="DEFAULT_VEHTYPE" speedFactor="1.05" vaporized="">
        <emissions CO_abs="4484.85" CO2_abs="442601.17" HC_abs="30.14" PMx_abs="42.85" NOx_abs="166.40" fuel_abs="143484.40" electricity_abs="0.00"/>
    </tripinfo>
    <tripinfo id="79" depart="40.00" departLane="-746785988_1" departPos="10.12" departSpeed="10.71" departDelay="0.50" arrival="161.00" arrivalLane="750563083#0_0" arrivalPos="16.59" arrivalSpeed="27.54" duration="121.00" routeLength="1088.14" waitingTime="25.00" waitingCount="4" stopTime="0.00" timeLoss="56.47" rerouteNo="0" devices="tripinfo_79 emissions_79" vType="DEFAULT_VEHTYPE" speedFactor="1.03" vaporized="">
        <emissions CO_abs="3539.41" CO2_abs="429489.78" HC_abs="23.60" PMx_abs="31.44" NOx_abs="156.09" fuel_abs="139233.85" electricity_abs="0.00"/>
    </tripinfo>
    <tripinfo id="285" depart="143.00" departLane="96487804#2_0" departPos="10.53" departSpeed="6.21" departDelay="0.50" arrival="161.00" arrivalLane="-96487803#1_0" arrivalPos="46.30" arrivalSpeed="8.58" duration="18.00" routeLength="119.29" waitingTime="0.00" waitingCount="0" stopTime="0.00" timeLoss="3.79" rerouteNo="0" devices="tripinfo_285 emissions_285" vType="DEFAULT_VEHTYPE" speedFactor="1.10" vaporized="">
        <emissions CO_abs="118.23" CO2_abs="36860.42" HC_abs="0.78" PMx_abs="2.55" NOx_abs="11.64" fuel_abs="11949.61" electricity_abs="0.00"/>
    </tripinfo>
    <tripinfo id="0" depart="0.00" departLane="28997044#0_0" departPos="23.91" departSpeed="2.92" departDelay="0.00" arrival="162.00" arrivalLane="-1292162272#0_0" arrivalPos="3.92" arrivalSpeed="7.62" duration="162.00" routeLength="1599.09" waitingTime="30.00" waitingCount="3" stopTime="0.00" timeLoss="61.01" rerouteNo="0" devices="tripinfo_0 emissions_0" vType="DEFAULT_VEHTYPE" speedFactor="0.98" vaporized="">
        <emissions CO_abs="3467.12" CO2_abs="479987.85" HC_abs="23.11" PMx_abs="39.46" NOx_abs="173.31" fuel_abs="155605.01" electricity_abs="0.00"/>
    </tripinfo>
    <tripinfo id="67" depart="34.00" departLane="746791799#2_1" departPos="1.47" departSpeed="9.26" departDelay="0.50" arrival="162.00" arrivalLane="-184852743#1_0" arrivalPos="10.59" arrivalSpeed="10.90" duration="128.00" routeLength="1061.31" waitingTime="11.00" waitingCount="2" stopTime="0.00" timeLoss="33.04" rerouteNo="0" devices="tripinfo_67 emissions_67" vType="DEFAULT_VEHTYPE" speedFactor="0.83" vaporized="">
        <emissions CO_abs="1241.89" CO2_abs="295060.78" HC_abs="8.25" PMx_abs="22.51" NOx_abs="98.41" fuel_abs="95654.72" electricity_abs="0.00"/>
    </tripinfo>
    <tripinfo id="94" depart="47.00" departLane="24957185#1_2" departPos="4.48" departSpeed="24.59" departDelay="0.00" arrival="162.00" arrivalLane="746559635_1" arrivalPos="0.20" arrivalSpeed="17.45" duration="115.00" routeLength="649.60" waitingTime="63.00" waitingCount="2" stopTime="0.00" timeLoss="85.24" rerouteNo="0" devices="tripinfo_94 emissions_94" vType="DEFAULT_VEHTYPE" speedFactor="0.89" vaporized="">
        <emissions CO_abs="2146.39" CO2_abs="320230.73" HC_abs="14.27" PMx_abs="16.94" NOx_abs="119.36" fuel_abs="103814.51" electricity_abs="0.00"/>
    </tripinfo>
    <tripinfo id="269" depart="135.00" departLane="-28997018#3_0" departPos="24.87" departSpeed="10.59" departDelay="0.50" arrival="162.00" arrivalLane="-1274179998#0_0" arrivalPos="18.46" arrivalSpeed="7.45" duration="27.00" routeLength="204.73" waitingTime="0.00" waitingCount="0" stopTime="0.00" timeLoss="8.26" rerouteNo="0" devices="tripinfo_269 emissions_269" vType="DEFAULT_VEHTYPE" speedFactor="0.90" vaporized="">
        <emissions CO_abs="386.64" CO2_abs="76870.25" HC_abs="2.55" PMx_abs="4.22" NOx_abs="24.40" fuel_abs="24920.10" electricity_abs="0.00"/>
    </tripinfo>
    <tripinfo id="29" depart="15.00" departLane="1057272192#1_2" departPos="23.63" departSpeed="23.95" departDelay="0.50" arrival="165.00" arrivalLane="-747853024#0_0" arrivalPos="18.33" arrivalSpeed="15.20" duration="150.00" routeLength="1988.20" waitingTime="16.00" waitingCount="2" stopTime="0.00" timeLoss="55.13" rerouteNo="0" devices="tripinfo_29 emissions_29" vType="DEFAULT_VEHTYPE" speedFactor="1.10" vaporized="">
        <emissions CO_abs="6186.15" CO2_abs="574479.96" HC_abs="41.50" PMx_abs="51.41" NOx_abs="218.15" fuel_abs="186237.12" electricity_abs="0.00"/>
    </tripinfo>
    <tripinfo id="77" depart="39.00" departLane="-35062147#1_0" departPos="9.08" departSpeed="11.92" departDelay="0.50" arrival="165.00" arrivalLane="208454139#1_0" arrivalPos="91.55" arrivalSpeed="7.71" duration="126.00" routeLength="776.18" waitingTime="41.00" waitingCount="3" stopTime="0.00" timeLoss="74.20" rerouteNo="0" devices="tripinfo_77 emissions_77" vType="DEFAULT_VEHTYPE" speedFactor="1.07" vaporized="">
        <emissions CO_abs="1834.95" CO2_abs="342871.33" HC_abs="12.14" PMx_abs="18.22" NOx_abs="119.53" fuel_abs="111154.04" electricity_abs="0.00"/>
    </tripinfo>
    <tripinfo id="36" depart="18.00" departLane="28553544#2_0" departPos="19.37" departSpeed="14.18" departDelay="0.00" arrival="167.00" arrivalLane="747854793_1" arrivalPos="38.35" arrivalSpeed="26.45" duration="149.00" routeLength="2311.47" waitingTime="7.00" waitingCount="1" stopTime="0.00" timeLoss="53.95" rerouteNo="0" devices="tripinfo_36 emissions_36" vType="DEFAULT_VEHTYPE" speedFactor="1.02" vaporized="">
        <emissions CO_abs="9422.00" CO2_abs="765839.48" HC_abs="63.09" PMx_abs="71.24" NOx_abs="298.02" fuel_abs="248272.02" electricity_abs="0.00"/>
    </tripinfo>
    <tripinfo id="54" depart="27.00" departLane="747228978#1_1" departPos="25.71" departSpeed="25.78" departDelay="0.00" arrival="169.00" arrivalLane="800671112#2_1" arrivalPos="28.94" arrivalSpeed="12.79" duration="142.00" routeLength="1107.27" waitingTime="0.00" waitingCount="0" stopTime="0.00" timeLoss="27.98" rerouteNo="0" devices="tripinfo_54 emissions_54" vType="DEFAULT_VEHTYPE" speedFactor="0.93" vaporized="">
        <emissions CO_abs="1977.57" CO2_abs="319772.72" HC_abs="13.18" PMx_abs="24.72" NOx_abs="113.47" fuel_abs="103665.68" electricity_abs="0.00"/>
    </tripinfo>
    <tripinfo id="102" depart="51.00" departLane="-745055575#1_1" departPos="19.83" departSpeed="2.86" departDelay="0.00" arrival="170.00" arrivalLane="135048803#5_0" arrivalPos="18.39" arrivalSpeed="28.22" duration="119.00" routeLength="2499.04" waitingTime="0.00" waitingCount="0" stopTime="0.00" timeLoss="24.09" rerouteNo="0" devices="tripinfo_102 emissions_102" vType="DEFAULT_VEHTYPE" speedFactor="1.04" vaporized="">
        <emissions CO_abs="9789.61" CO2_abs="708331.90" HC_abs="65.95" PMx_abs="79.66" NOx_abs="282.29" fuel_abs="229629.16" electricity_abs="0.00"/>
    </tripinfo>
    <tripinfo id="164" depart="82.00" departLane="-1008051258#0_0" departPos="33.32" departSpeed="6.84" departDelay="0.00" arrival="170.00" arrivalLane="-770797808#3_0" arrivalPos="16.05" arrivalSpeed="7.56" duration="88.00" routeLength="788.65" waitingTime="0.00" waitingCount="0" stopTime="0.00" timeLoss="19.09" rerouteNo="0" devices="tripinfo_164 emissions_164" vType="DEFAULT_VEHTYPE" speedFactor="1.01" vaporized="">
        <emissions CO_abs="1214.12" CO2_abs="228070.35" HC_abs="8.04" PMx_abs="16.79" NOx_abs="75.07" fuel_abs="73937.01" electricity_abs="0.00"/>
    </tripinfo>
    <tripinfo id="42" depart="21.00" departLane="354718302#2_0" departPos="32.72" departSpeed="15.29" departDelay="0.00" arrival="171.00" arrivalLane="28536354#0_0" arrivalPos="33.59" arrivalSpeed="13.17" duration="150.00" routeLength="1238.90" waitingTime="25.00" waitingCount="3" stopTime="0.00" timeLoss="56.51" rerouteNo="0" devices="tripinfo_42 emissions_42" vType="DEFAULT_VEHTYPE" speedFactor="1.10" vaporized="">
        <emissions CO_abs="1835.65" CO2_abs="352834.53" HC_abs="12.21" PMx_abs="26.30" NOx_abs="122.53" fuel_abs="114384.16" electricity_abs="0.00"/>
    </tripinfo>
    <tripinfo id="17" depart="9.00" departLane="746811049#1_0" departPos="23.70" departSpeed="24.71" departDelay="0.50" arrival="179.00" arrivalLane="28539946#2_0" arrivalPos="25.59" arrivalSpeed="10.90" duration="170.00" routeLength="1210.34" waitingTime="0.00" waitingCount="0" stopTime="0.00" timeLoss="28.65" rerouteNo="0" devices="tripinfo_17 emissions_17" vType="DEFAULT_VEHTYPE" speedFactor="0.89" vaporized="">
        <emissions CO_abs="1068.30" CO2_abs="308816.85" HC_abs="7.10" PMx_abs="23.47" NOx_abs="103.50" fuel_abs="100114.36" electricity_abs="0.00"/>
    </tripinfo>
    <tripinfo id="41" depart="21.00" departLane="-1212504575_1" departPos="20.66" departSpeed="13.93" departDelay="0.50" arrival="179.00" arrivalLane="4940264_0" arrivalPos="11.99" arrivalSpeed="13.35" duration="158.00" routeLength="1257.02" waitingTime="30.00" waitingCount="4" stopTime="0.00" timeLoss="78.72" rerouteNo="0" devices="tripinfo_41 emissions_41" vType="DEFAULT_VEHTYPE" speedFactor="1.00" vaporized="">
        <emissions CO_abs="3992.91" CO2_abs="524126.09" HC_abs="26.42" PMx_abs="31.88" NOx_abs="188.46" fuel_abs="169913.55" electricity_abs="0.00"/>
    </tripinfo>
    <tripinfo id="56" depart="28.00" departLane="-215516155#1_0" departPos="9.84" departSpeed="15.52" departDelay="0.00" arrival="181.00" arrivalLane="623260830#0_0" arrivalPos="8.04" arrivalSpeed="10.20" duration="153.00" routeLength="1520.82" waitingTime="2.00" waitingCount="2" stopTime="0.00" timeLoss="34.70" rerouteNo="0" devices="tripinfo_56 emissions_56" vType="DEFAULT_VEHTYPE" speedFactor="1.12" vaporized="">
        <emissions CO_abs="2607.43" CO2_abs="443453.16" HC_abs="17.30" PMx_abs="35.46" NOx_abs="150.40" fuel_abs="143761.07" electricity_abs="0.00"/>
    </tripinfo>
    <tripinfo id="70" depart="35.00" departLane="777645897_0" departPos="7.57" departSpeed="9.66" departDelay="0.00" arrival="182.00" arrivalLane="28539915#0_1" arrivalPos="67.09" arrivalSpeed="11.59" duration="147.00" routeLength="1610.20" waitingTime="0.00" waitingCount="0" stopTime="0.00" timeLoss="28.87" rerouteNo="0" devices="tripinfo_70 emissions_70" vType="DEFAULT_VEHTYPE" speedFactor="0.86" vaporized="">
        <emissions CO_abs="3171.42" CO2_abs="442301.11" HC_abs="21.11" PMx_abs="36.97" NOx_abs="153.13" fuel_abs="143387.21" electricity_abs="0.00"/>
    </tripinfo>
    <tripinfo id="122" depart="61.00" departLane="568142849#0_1" departPos="14.47" departSpeed="4.47" departDelay="0.00" arrival="182.00" arrivalLane="28539702#4_0" arrivalPos="17.50" arrivalSpeed="11.03" duration="121.00" routeLength="1204.26" waitingTime="10.00" waitingCount="1" stopTime="0.00" timeLoss="31.50" rerouteNo="0" devices="tripinfo_122 emissions_122" vType="DEFAULT_VEHTYPE" speedFactor="0.80" vaporized="">
        <emissions CO_abs="2273.01" CO2_abs="339891.40" HC_abs="15.12" PMx_abs="27.12" NOx_abs="118.66" fuel_abs="110187.72" electricity_abs="0.00"/>
    </tripinfo>