<?xml version="1.0" encoding="UTF-8"?>

<!-- generated on 2026-02-18T20:44:31.315442+08:00 by Eclipse SUMO GUI 1.25.0
<sumoConfiguration xmlns:xsi="http://www.w3.org/2001/XMLSchema-instance" xsi:noNamespaceSchemaLocation="http://sumo.dlr.de/xsd/sumoConfiguration.xsd">

    <input>
        <net-file value="c:\Users\otaku\Documents\Thesis\apriori_civiq\scenarios/bgc_full/final_map.net.xml"/>
        <route-files value="c:\Users\otaku\Documents\Thesis\apriori_civiq\scenarios/bgc_full/wardrop_routes_med.rou.xml"/>
        <additional-files value="c:\Users\otaku\Documents\Thesis\apriori_civiq\scenarios/bgc_full/osm.poly.xml.gz,c:\Users\otaku\Documents\Thesis\apriori_civiq\scenarios/bgc_full/output.add.xml,c:\Users\otaku\Documents\Thesis\apriori_civiq\scenarios/bgc_full/vtypes.add.xml"/>
    </input>

    <output>
        <summary-output value="c:\Users\otaku\Documents\Thesis\apriori_civiq\scenarios/bgc_full/data\summary_med.xml"/>
        <tripinfo-output value="c:\Users\otaku\Documents\Thesis\apriori_civiq\scenarios/bgc_full/data\tripinfo_med.xml"/>
        <statistic-output value="c:\Users\otaku\Documents\Thesis\apriori_civiq\scenarios/bgc_full/data\stats_med.xml"/>
    </output>

    <time>
        <step-length value="1.0"/>
    </time>

    <processing>
        <ignore-route-errors value="true"/>
        <time-to-teleport value="-1"/>
        <tls.actuated.jam-threshold value="30"/>
    </processing>

    <routing>
        <device.rerouting.adaptation-steps value="18"/>
        <device.rerouting.adaptation-interval value="10"/>
    </routing>

    <report>
        <verbose value="true"/>
        <duration-log.statistics value="true"/>
        <no-step-log value="true"/>
    </report>

    <emissions>
        <device.emissions.probability value="1.0"/>
    </emissions>

    <traci_server>
        <remote-port value="53436"/>
    </traci_server>

    <gui_only>
        <gui-settings-file value="c:\Users\otaku\Documents\Thesis\apriori_civiq\scenarios/bgc_full/osm.view.xml"/>
        <start value="true"/>
    </gui_only>

</sumoConfiguration>
-->

<tripinfos xmlns:xsi="http://www.w3.org/2001/XMLSchema-instance" xsi:noNamespaceSchemaLocation="http://sumo.dlr.de/xsd/tripinfo_file.xsd">
    <tripinfo id="6" depart="12.00" departLane="-586354143_0" departPos="20.30" departSpeed="14.13" departDelay="0.00" arrival="61.00" arrivalLane="28553554#10_0" arrivalPos="24.00" arrivalSpeed="13.13" duration="49.00" routeLength="624.93" waitingTime="0.00" waitingCount="0" stopTime="0.00" timeLoss="3.76" rerouteNo="0" devices="tripinfo_6 emissions_6" vType="DEFAULT_VEHTYPE" speedFactor="1.02" vaporized="">
        <emissions CO_abs="651.56" CO2_abs="109753.71" HC_abs="4.37" PMx_abs="13.70" NOx_abs="39.28" fuel_abs="35580.84" electricity_abs="0.00"/>
    </tripinfo>
    <tripinfo id="23" depart="46.00" departLane="313048179#5_0" departPos="15.39" departSpeed="12.83" departDelay="0.00" arrival="65.00" arrivalLane="28995163#11_0" arrivalPos="23.68" arrivalSpeed="15.82" duration="19.00" routeLength="208.63" waitingTime="0.00" waitingCount="0" stopTime="0.00" timeLoss="4.79" rerouteNo="0" devices="tripinfo_23 emissions_23" vType="DEFAULT_VEHTYPE" speedFactor="1.15" vaporized="">
        <emissions CO_abs="573.45" CO2_abs="78371.54" HC_abs="3.80" PMx_abs="5.62" NOx_abs="26.84" fuel_abs="25406.84" electricity_abs="0.00"/>
    </tripinfo>
    <tripinfo id="11" depart="22.00" departLane="-23296771#2_0" departPos="15.53" departSpeed="6.02" departDelay="0.00" arrival="110.00" arrivalLane="-23296768#1_0" arrivalPos="257.33" arrivalSpeed="11.63" duration="88.00" routeLength="841.99" waitingTime="0.00" waitingCount="0" stopTime="0.00" timeLoss="16.90" rerouteNo="0" devices="tripinfo_11 emissions_11" vType="DEFAULT_VEHTYPE" speedFactor="0.93" vaporized="">
        <emissions CO_abs="1164.97" CO2_abs="223269.60" HC_abs="7.73" PMx_abs="17.95" NOx_abs="73.67" fuel_abs="72380.76" electricity_abs="0.00"/>
    </tripinfo>
    <tripinfo id="34" depart="68.00" departLane="-747853025#3_0" departPos="0.24" departSpeed="10.70" departDelay="0.00" arrival="145.00" arrivalLane="-745055614#1_0" arrivalPos="13.06" arrivalSpeed="5.67" duration="77.00" routeLength="515.64" waitingTime="0.00" waitingCount="0" stopTime="0.00" timeLoss="8.79" rerouteNo="0" devices="tripinfo_34 emissions_34" vType="DEFAULT_VEHTYPE" speedFactor="0.77" vaporized="">
        <emissions CO_abs="296.59" CO2_abs="123525.13" HC_abs="1.97" PMx_abs="9.62" NOx_abs="41.61" fuel_abs="40045.36" electricity_abs="0.00"/>
    </tripinfo>
    <tripinfo id="46" depart="92.00" departLane="747228973#1_0" departPos="14.88" departSpeed="22.15" departDelay="0.00" arrival="146.00" arrivalLane="-747447017#1_1" arrivalPos="12.31" arrivalSpeed="12.79" duration="54.00" routeLength="576.44" waitingTime="10.00" waitingCount="1" stopTime="0.00" timeLoss="23.66" rerouteNo="0" devices="tripinfo_46 emissions_46" vType="DEFAULT_VEHTYPE" speedFactor="1.00" vaporized="">
        <emissions CO_abs="1808.82" CO2_abs="189366.83" HC_abs="12.02" PMx_abs="14.33" NOx_abs="72.11" fuel_abs="61389.65" electricity_abs="0.00"/>
    </tripinfo>
    <tripinfo id="59" depart="118.00" departLane="183688028#0_0" departPos="56.58" departSpeed="15.10" departDelay="0.00" arrival="147.00" arrivalLane="-440588496#5_1" arrivalPos="27.03" arrivalSpeed="11.89" duration="29.00" routeLength="323.37" waitingTime="0.00" waitingCount="0" stopTime="0.00" timeLoss="5.09" rerouteNo="0" devices="tripinfo_59 emissions_59" vType="DEFAULT_VEHTYPE" speedFactor="1.09" vaporized="">
        <emissions CO_abs="409.89" CO2_abs="74673.96" HC_abs="2.73" PMx_abs="7.84" NOx_abs="25.44" fuel_abs="24208.31" electricity_abs="0.00"/>
    </tripinfo>
    <tripinfo id="47" depart="94.00" departLane="749508466#1_0" departPos="40.76" departSpeed="31.09" departDelay="0.00" arrival="159.00" arrivalLane="747009416#1_0" arrivalPos="12.73" arrivalSpeed="15.00" duration="65.00" routeLength="888.72" waitingTime="0.00" waitingCount="0" stopTime="0.00" timeLoss="10.38" rerouteNo="0" devices="tripinfo_47 emissions_47" vType="DEFAULT_VEHTYPE" speedFactor="1.12" vaporized="">
        <emissions CO_abs="1502.05" CO2_abs="190128.36" HC_abs="10.05" PMx_abs="18.23" NOx_abs="67.16" fuel_abs="61636.82" electricity_abs="0.00"/>
    </tripinfo>
    <tripinfo id="0" depart="0.00" departLane="28997044#0_0" departPos="23.91" departSpeed="2.92" departDelay="0.00" arrival="163.00" arrivalLane="-1292162272#0_0" arrivalPos="3.92" arrivalSpeed="7.15" duration="163.00" routeLength="1599.09" waitingTime="30.00" waitingCount="3" stopTime="0.00" timeLoss="61.46" rerouteNo="0" devices="tripinfo_0 emissions_0" vType="DEFAULT_VEHTYPE" speedFactor="0.98" vaporized="">
        <emissions CO_abs="3400.03" CO2_abs="470314.49" HC_abs="22.63" PMx_abs="36.96" NOx_abs="169.46" fuel_abs="152468.97" electricity_abs="0.00"/>
    </tripinfo>
    <tripinfo id="53" depart="106.00" departLane="747228979_1" departPos="10.39" departSpeed="22.71" departDelay="0.00" arrival="177.00" arrivalLane="745055576#2_1" arrivalPos="11.12" arrivalSpeed="10.60" duration="71.00" routeLength="961.48" waitingTime="0.00" waitingCount="0" stopTime="0.00" timeLoss="11.89" rerouteNo="0" devices="tripinfo_53 emissions_53" vType="DEFAULT_VEHTYPE" speedFactor="1.02" vaporized="">
        <emissions CO_abs="2593.78" CO2_abs="248083.57" HC_abs="17.32" PMx_abs="23.03" NOx_abs="93.31" fuel_abs="80424.59" electricity_abs="0.00"/>
    </tripinfo>
    <tripinfo id="13" depart="26.00" departLane="744640943#1_0" departPos="5.43" departSpeed="13.00" departDelay="0.00" arrival="189.00" arrivalLane="54039517#1_0" arrivalPos="40.88" arrivalSpeed="11.72" duration="163.00" routeLength="1196.70" waitingTime="47.00" waitingCount="4" stopTime="0.00" timeLoss="80.64" rerouteNo="0" devices="tripinfo_13 emissions_13" vType="DEFAULT_VEHTYPE" speedFactor="0.94" vaporized="">
        <emissions CO_abs="2727.70" CO2_abs="455120.09" HC_abs="18.11" PMx_abs="29.73" NOx_abs="161.65" fuel_abs="147543.53" electricity_abs="0.00"/>
    </tripinfo>
    <tripinfo id="22" depart="44.00" departLane="-747853030_0" departPos="5.07" departSpeed="12.42" departDelay="0.00" arrival="192.00" arrivalLane="770814991_0" arrivalPos="9.53" arrivalSpeed="10.87" duration="148.00" routeLength="1299.71" waitingTime="45.00" waitingCount="3" stopTime="0.00" timeLoss="76.04" rerouteNo="0" devices="tripinfo_22 emissions_22" vType="DEFAULT_VEHTYPE" speedFactor="0.89" vaporized="">
        <emissions CO_abs="3313.24" CO2_abs="437121.09" HC_abs="22.06" PMx_abs="30.86" NOx_abs="160.65" fuel_abs="141708.13" electricity_abs="0.00"/>
    </tripinfo>
    <tripinfo id="33" depart="66.00" departLane="749513998_0" departPos="18.68" departSpeed="14.42" departDelay="0.00" arrival="197.00" arrivalLane="226831899#2_0" arrivalPos="20.33" arrivalSpeed="8.03" duration="131.00" routeLength="1826.94" waitingTime="12.00" waitingCount="1" stopTime="0.00" timeLoss="38.83" rerouteNo="0" devices="tripinfo_33 emissions_33" vType="DEFAULT_VEHTYPE" speedFactor="1.04" vaporized="">
        <emissions CO_abs="6599.52" CO2_abs="555237.58" HC_abs="44.09" PMx_abs="50.67" NOx_abs="217.99" fuel_abs="179998.60" electricity_abs="0.00"/>
    </tripinfo>
    <tripinfo id="3" depart="6.00" departLane="-555335240#2_0" departPos="16.22" departSpeed="14.53" departDelay="0.00" arrival="199.00" arrivalLane="24957185#1_2" arrivalPos="42.75" arrivalSpeed="11.97" duration="193.00" routeLength="1777.65" waitingTime="40.00" waitingCount="1" stopTime="0.00" timeLoss="90.31" rerouteNo="0" devices="tripinfo_3 emissions_3" vType="DEFAULT_VEHTYPE" speedFactor="1.05" vaporized="">
        <emissions CO_abs="4572.91" CO2_abs="617867.52" HC_abs="30.31" PMx_abs="42.82" NOx_abs="221.73" fuel_abs="200303.33" electricity_abs="0.00"/>
    </tripinfo>
    <tripinfo id="61" depart="122.00" departLane="204841599_1" departPos="14.92" departSpeed="22.70" departDelay="0.00" arrival="199.00" arrivalLane="27274183#4_0" arrivalPos="20.68" arrivalSpeed="14.11" duration="77.00" routeLength="473.33" waitingTime="10.00" waitingCount="2" stopTime="0.00" timeLoss="32.40" rerouteNo="0" devices="tripinfo_61 emissions_61" vType="DEFAULT_VEHTYPE" speedFactor="1.02" vaporized="">
        <emissions CO_abs="815.58" CO2_abs="187831.77" HC_abs="5.39" PMx_abs="10.03" NOx_abs="62.73" fuel_abs="60892.39" electricity_abs="0.00"/>
    </tripinfo>
    <tripinfo id="17" depart="34.00" departLane="746811049#1_0" departPos="23.70" departSpeed="24.71" departDelay="0.00" arrival="205.00" arrivalLane="28539946#2_0" arrivalPos="25.59" arrivalSpeed="11.24" duration="171.00" routeLength="1210.34" waitingTime="0.00" waitingCount="0" stopTime="0.00" timeLoss="29.77" rerouteNo="0" devices="tripinfo_17 emissions_17" vType="DEFAULT_VEHTYPE" speedFactor="0.89" vaporized="">
        <emissions CO_abs="1049.44" CO2_abs="310560.86" HC_abs="6.97" PMx_abs="23.71" NOx_abs="104.24" fuel_abs="100679.79" electricity_abs="0.00"/>
    </tripinfo>
    <tripinfo id="14" depart="28.00" departLane="28536354#0_1" departPos="19.02" departSpeed="15.04" departDelay="0.00" arrival="206.00" arrivalLane="897106072#1_0" arrivalPos="25.69" arrivalSpeed="11.69" duration="178.00" routeLength="2523.82" waitingTime="21.00" waitingCount="1" stopTime="0.00" timeLoss="62.20" rerouteNo="0" devices="tripinfo_14 emissions_14" vType="DEFAULT_VEHTYPE" speedFactor="1.08" vaporized="">
        <emissions CO_abs="8252.86" CO2_abs="724231.27" HC_abs="55.50" PMx_abs="70.39" NOx_abs="277.40" fuel_abs="234783.95" electricity_abs="0.00"/>
    </tripinfo>
    <tripinfo id="29" depart="58.00" departLane="1057272192#1_2" departPos="23.63" departSpeed="26.38" departDelay="0.00" arrival="211.00" arrivalLane="-747853024#0_0" arrivalPos="18.33" arrivalSpeed="14.09" duration="153.00" routeLength="1975.09" waitingTime="16.00" waitingCount="2" stopTime="0.00" timeLoss="66.76" rerouteNo="0" devices="tripinfo_29 emissions_29" vType="DEFAULT_VEHTYPE" speedFactor="1.10" vaporized="">
        <emissions CO_abs="8364.12" CO2_abs="719676.96" HC_abs="55.66" PMx_abs="55.39" NOx_abs="277.86" fuel_abs="233306.21" electricity_abs="0.00"/>
    </tripinfo>
    <tripinfo id="35" depart="70.00" departLane="28539862#0_0" departPos="2.99" departSpeed="12.51" departDelay="0.00" arrival="217.00" arrivalLane="-747447017#0_1" arrivalPos="14.06" arrivalSpeed="11.29" duration="147.00" routeLength="1842.86" waitingTime="12.00" waitingCount="1" stopTime="0.00" timeLoss="40.55" rerouteNo="0" devices="tripinfo_35 emissions_35" vType="DEFAULT_VEHTYPE" speedFactor="0.90" vaporized="">
        <emissions CO_abs="4266.76" CO2_abs="472276.90" HC_abs="28.60" PMx_abs="45.85" NOx_abs="173.95" fuel_abs="153104.95" electricity_abs="0.00"/>
    </tripinfo>
    <tripinfo id="42" depart="84.00" departLane="354718302#2_0" departPos="32.72" departSpeed="15.29" departDelay="0.00" arrival="218.00" arrivalLane="28536354#0_0" arrivalPos="33.59" arrivalSpeed="13.73" duration="134.00" routeLength="1238.90" waitingTime="6.00" waitingCount="2" stopTime="0.00" timeLoss="40.19" rerouteNo="0" devices="tripinfo_42 emissions_42" vType="DEFAULT_VEHTYPE" speedFactor="1.10" vaporized="">
        <emissions CO_abs="2045.26" CO2_abs="362524.68" HC_abs="13.60" PMx_abs="28.79" NOx_abs="123.12" fuel_abs="117525.31" electricity_abs="0.00"/>
    </tripinfo>
    <tripinfo id="55" depart="110.00" departLane="-23296748#2_0" departPos="24.68" departSpeed="14.66" departDelay="0.00" arrival="218.00" arrivalLane="23296777#3_0" arrivalPos="19.93" arrivalSpeed="14.49" duration="108.00" routeLength="1001.08" waitingTime="0.00" waitingCount="0" stopTime="0.00" timeLoss="24.56" rerouteNo="0" devices="tripinfo_55 emissions_55" vType="DEFAULT_VEHTYPE" speedFactor="1.06" vaporized="">
        <emissions CO_abs="1758.40" CO2_abs="309122.93" HC_abs="11.64" PMx_abs="22.32" NOx_abs="102.75" fuel_abs="100213.04" electricity_abs="0.00"/>
    </tripinfo>
    <tripinfo id="12" depart="24.00" departLane="746423905#1_0" departPos="21.04" departSpeed="8.68" departDelay="0.00" arrival="219.00" arrivalLane="28553959#9_0" arrivalPos="73.80" arrivalSpeed="14.04" duration="195.00" routeLength="2468.31" waitingTime="20.00" waitingCount="3" stopTime="0.00" timeLoss="67.84" rerouteNo="0" devices="tripinfo_12 emissions_12" vType="DEFAULT_VEHTYPE" speedFactor="1.04" vaporized="">
        <emissions CO_abs="8334.22" CO2_abs="799519.07" HC_abs="55.71" PMx_abs="68.21" NOx_abs="301.45" fuel_abs="259190.84" electricity_abs="0.00"/>
    </tripinfo>
    <tripinfo id="30" depart="60.00" departLane="-4940249#1_0" departPos="0.99" departSpeed="6.96" departDelay="0.00" arrival="221.00" arrivalLane="800662538#2_0" arrivalPos="168.65" arrivalSpeed="10.85" duration="161.00" routeLength="1815.86" waitingTime="9.00" waitingCount="1" stopTime="0.00" timeLoss="43.01" rerouteNo="0" devices="tripinfo_30 emissions_30" vType="DEFAULT_VEHTYPE" speedFactor="0.83" vaporized="">
        <emissions CO_abs="4528.72" CO2_abs="539906.88" HC_abs="30.17" PMx_abs="46.27" NOx_abs="195.85" fuel_abs="175029.48" electricity_abs="0.00"/>
    </tripinfo>
    <tripinfo id="9" depart="18.00" departLane="1212504575_0" departPos="15.96" departSpeed="15.60" departDelay="0.00" arrival="223.00" arrivalLane="-28553906_0" arrivalPos="69.55" arrivalSpeed="14.76" duration="205.00" routeLength="2904.40" waitingTime="6.00" waitingCount="1" stopTime="0.00" timeLoss="55.52" rerouteNo="0" devices="tripinfo_9 emissions_9" vType="DEFAULT_VEHTYPE" speedFactor="1.12" vaporized="">
        <emissions CO_abs="9740.75" CO2_abs="900192.93" HC_abs="65.10" PMx_abs="81.67" NOx_abs="338.68" fuel_abs="291827.62" electricity_abs="0.00"/>
    </tripinfo>
    <tripinfo id="107" depart="214.00" departLane="747228984#1_1" departPos="23.75" departSpeed="12.37" departDelay="0.00" arrival="234.00" arrivalLane="747228976#1_2" arrivalPos="59.33" arrivalSpeed="16.66" duration="20.00" routeLength="210.21" waitingTime="0.00" waitingCount="0" stopTime="0.00" timeLoss="8.57" rerouteNo="0" devices="tripinfo_107 emissions_107" vType="DEFAULT_VEHTYPE" speedFactor="1.11" vaporized="">
        <emissions CO_abs="778.38" CO2_abs="86285.98" HC_abs="5.14" PMx_abs="5.57" NOx_abs="30.71" fuel_abs="27972.47" electricity_abs="0.00"/>
    </tripinfo>
    <tripinfo id="7" depart="14.00" departLane="744645401#1_0" departPos="27.25" departSpeed="30.30" departDelay="0.00" arrival="235.00" arrivalLane="-1065726174_0" arrivalPos="63.66" arrivalSpeed="15.10" duration="221.00" routeLength="1372.19" waitingTime="107.00" waitingCount="4" stopTime="0.00" timeLoss="159.32" rerouteNo="0" devices="tripinfo_7 emissions_7" vType="DEFAULT_VEHTYPE" speedFactor="1.09" vaporized="">
        <emissions CO_abs="5697.99" CO2_abs="695982.12" HC_abs="37.80" PMx_abs="38.03" NOx_abs="266.24" fuel_abs="225626.95" electricity_abs="0.00"/>
    </tripinfo>
    <tripinfo id="41" depart="82.00" departLane="-1212504575_1" departPos="20.66" departSpeed="13.93" departDelay="0.00" arrival="242.00" arrivalLane="4940264_0" arrivalPos="11.99" arrivalSpeed="13.71" duration="160.00" routeLength="1286.90" waitingTime="41.00" waitingCount="2" stopTime="0.00" timeLoss="83.43" rerouteNo="0" devices="tripinfo_41 emissions_41" vType="DEFAULT_VEHTYPE" speedFactor="1.00" vaporized="">
        <emissions CO_abs="4170.39" CO2_abs="553186.99" HC_abs="27.60" PMx_abs="34.01" NOx_abs="198.50" fuel_abs="179334.60" electricity_abs="0.00"/>
    </tripinfo>
    <tripinfo id="10" depart="20.00" departLane="814837413#1_0" departPos="0.15" departSpeed="12.51" departDelay="0.00" arrival="245.00" arrivalLane="1072980033#0_0" arrivalPos="0.20" arrivalSpeed="6.55" duration="225.00" routeLength="2110.94" waitingTime="38.00" waitingCount="2" stopTime="0.00" timeLoss="84.02" rerouteNo="0" devices="tripinfo_10 emissions_10" vType="DEFAULT_VEHTYPE" speedFactor="0.90" vaporized="">
        <emissions CO_abs="6345.72" CO2_abs="726838.90" HC_abs="42.09" PMx_abs="50.07" NOx_abs="269.01" fuel_abs="235629.70" electricity_abs="0.00"/>
    </tripinfo>
    <tripinfo id="94" depart="188.00" departLane="24957185#1_2" departPos="4.48" departSpeed="24.59" departDelay="0.00" arrival="249.00" arrivalLane="746559635_1" arrivalPos="0.20" arrivalSpeed="20.47" duration="61.00" routeLength="649.60" waitingTime="12.00" waitingCount="1" stopTime="0.00" timeLoss="30.27" rerouteNo="0" devices="tripinfo_94 emissions_94" vType="DEFAULT_VEHTYPE" speedFactor="0.89" vaporized="">
        <emissions CO_abs="2356.89" CO2_abs="246826.93" HC_abs="15.69" PMx_abs="18.36" NOx_abs="91.87" fuel_abs="80017.37" electricity_abs="0.00"/>
    </tripinfo>
    <tripinfo id="25" depart="50.00" departLane="96487804#0_0" departPos="13.64" departSpeed="8.29" departDelay="0.00" arrival="250.00" arrivalLane="29001191#1_1" arrivalPos="43.09" arrivalSpeed="12.98" duration="200.00" routeLength="1566.43" waitingTime="36.00" waitingCount="4" stopTime="0.00" timeLoss="95.14" rerouteNo="0" devices="tripinfo_25 emissions_25" vType="DEFAULT_VEHTYPE" speedFactor="0.99" vaporized="">
        <emissions CO_abs="5388.05" CO2_abs="657027.69" HC_abs="35.68" PMx_abs="41.26" NOx_abs="241.72" fuel_abs="212997.72" electricity_abs="0.00"/>
    </tripinfo>
    <tripinfo id="54" depart="108.00" departLane="747228978#1_1" departPos="25.71" departSpeed="25.78" departDelay="0.00" arrival="251.00" arrivalLane="800671112#2_1" arrivalPos="28.94" arrivalSpeed="12.23" duration="143.00" routeLength="1107.27" waitingTime="0.00" waitingCount="0" stopTime="0.00" timeLoss="27.89" rerouteNo="0" devices="tripinfo_54 emissions_54" vType="DEFAULT_VEHTYPE" speedFactor="0.93" vaporized="">
        <emissions CO_abs="1956.54" CO2_abs="314442.35" HC_abs="13.00" PMx_abs="23.50" NOx_abs="111.57" fuel_abs="101937.56" electricity_abs="0.00"/>
    </tripinfo>
    <tripinfo id="36" depart="72.00" departLane="28553544#2_0" departPos="19.37" departSpeed="14.18" departDelay="0.00" arrival="252.00" arrivalLane="747854793_1" arrivalPos="38.35" arrivalSpeed="27.28" duration="180.00" routeLength="2311.47" waitingTime="40.00" waitingCount="2" stopTime="0.00" timeLoss="84.54" rerouteNo="0" devices="tripinfo_36 emissions_36" vType="DEFAULT_VEHTYPE" speedFactor="1.02" vaporized="">
        <emissions CO_abs="10112.96" CO2_abs="846985.15" HC_abs="67.56" PMx_abs="71.33" NOx_abs="334.12" fuel_abs="274578.12" electricity_abs="0.00"/>
    </tripinfo>
    <tripinfo id="56" depart="112.00" departLane="-215516155#1_0" departPos="9.84" departSpeed="15.52" departDelay="0.00" arrival="258.00" arrivalLane="623260830#0_0" arrivalPos="8.04" arrivalSpeed="9.98" duration="146.00" routeLength="1520.82" waitingTime="0.00" waitingCount="0" stopTime="0.00" timeLoss="28.39" rerouteNo="0" devices="tripinfo_56 emissions_56" vType="DEFAULT_VEHTYPE" speedFactor="1.12" vaporized="">
        <emissions CO_abs="2575.50" CO2_abs="415726.78" HC_abs="17.08" PMx_abs="33.56" NOx_abs="141.42" fuel_abs="134772.61" electricity_abs="0.00"/>
    </tripinfo>
    <tripinfo id="24" depart="48.00" departLane="-28996951_0" departPos="28.85" departSpeed="1.87" departDelay="0.00" arrival="261.00" arrivalLane="51355540#1_0" arrivalPos="48.16" arrivalSpeed="20.67" duration="213.00" routeLength="1697.46" waitingTime="69.00" waitingCount="3" stopTime="0.00" timeLoss="122.45" rerouteNo="0" devices="tripinfo_24 emissions_24" vType="DEFAULT_VEHTYPE" speedFactor="1.12" vaporized="">
        <emissions CO_abs="7048.91" CO2_abs="790564.03" HC_abs="46.76" PMx_abs="48.52" NOx_abs="296.85" fuel_abs="256288.26" electricity_abs="0.00"/>
    </tripinfo>
    <tripinfo id="1" depart="2.00" departLane="747853024#2_1" departPos="23.96" departSpeed="15.04" departDelay="0.00" arrival="262.00" arrivalLane="-23296743#2_0" arrivalPos="22.63" arrivalSpeed="9.01" duration="260.00" routeLength="2316.57" waitingTime="67.00" waitingCount="2" stopTime="0.00" timeLoss="118.64" rerouteNo="0" devices="tripinfo_1 emissions_1" vType="DEFAULT_VEHTYPE" speedFactor="1.08" vaporized="">
        <emissions CO_abs="5618.10" CO2_abs="776260.43" HC_abs="37.44" PMx_abs="56.58" NOx_abs="279.44" fuel_abs="251652.26" electricity_abs="0.00"/>
    </tripinfo>
    <tripinfo id="27" depart="54.00" departLane="745542369#1_0" departPos="20.11" departSpeed="28.33" departDelay="0.00" arrival="263.00" arrivalLane="706539634#3_0" arrivalPos="35.29" arrivalSpeed="13.18" duration="209.00" routeLength="2120.93" waitingTime="37.00" waitingCount="2" stopTime="0.00" timeLoss="78.94" rerouteNo="0" devices="tripinfo_27 emissions_27" vType="DEFAULT_VEHTYPE" speedFactor="1.02" vaporized="">
        <emissions CO_abs="5520.29" CO2_abs="627248.61" HC_abs="37.03" PMx_abs="52.92" NOx_abs="234.16" fuel_abs="203344.53" electricity_abs="0.00"/>
    </tripinfo>
    <tripinfo id="45" depart="90.00" departLane="226831899#1_0" departPos="16.89" departSpeed="8.53" departDelay="0.00" arrival="265.00" arrivalLane="814837403#2_0" arrivalPos="3.03" arrivalSpeed="10.96" duration="175.00" routeLength="1395.20" waitingTime="55.00" waitingCount="4" stopTime="0.00" timeLoss="105.24" rerouteNo="0" devices="tripinfo_45 emissions_45" vType="DEFAULT_VEHTYPE" speedFactor="1.02" vaporized="">
        <emissions CO_abs="6035.46" CO2_abs="658092.30" HC_abs="39.96" PMx_abs="39.34" NOx_abs="247.61" fuel_abs="213342.68" electricity_abs="0.00"/>
    </tripinfo>
    <tripinfo id="68" depart="136.00" departLane="-745055573#0_1" departPos="13.83" departSpeed="11.69" departDelay="0.00" arrival="265.00" arrivalLane="33423429_0" arrivalPos="27.28" arrivalSpeed="12.05" duration="129.00" routeLength="1665.14" waitingTime="12.00" waitingCount="2" stopTime="0.00" timeLoss="36.81" rerouteNo="0" devices="tripinfo_68 emissions_68" vType="DEFAULT_VEHTYPE" speedFactor="1.05" vaporized="">
        <emissions CO_abs="4582.18" CO2_abs="447933.96" HC_abs="30.78" PMx_abs="43.26" NOx_abs="168.33" fuel_abs="145213.12" electricity_abs="0.00"/>
    </tripinfo>
    <tripinfo id="77" depart="154.00" departLane="-35062147#1_0" departPos="9.08" departSpeed="11.92" departDelay="0.00" arrival="266.00" arrivalLane="208454139#1_0" arrivalPos="91.55" arrivalSpeed="8.54" duration="112.00" routeLength="776.18" waitingTime="28.00" waitingCount="1" stopTime="0.00" timeLoss="59.86" rerouteNo="0" devices="tripinfo_77 emissions_77" vType="DEFAULT_VEHTYPE" speedFactor="1.07" vaporized="">
        <emissions CO_abs="1736.04" CO2_abs="308279.80" HC_abs="11.49" PMx_abs="18.70" NOx_abs="107.48" fuel_abs="99939.87" electricity_abs="0.00"/>
    </tripinfo>
    <tripinfo id="4" depart="8.00" departLane="-1292171266_0" departPos="23.03" departSpeed="8.98" departDelay="0.00" arrival="267.00" arrivalLane="-35062147#1_0" arrivalPos="113.54" arrivalSpeed="10.99" duration="259.00" routeLength="2881.85" waitingTime="35.00" waitingCount="3" stopTime="0.00" timeLoss="96.25" rerouteNo="0" devices="tripinfo_4 emissions_4" vType="DEFAULT_VEHTYPE" speedFactor="1.08" vaporized="">
        <emissions CO_abs="9763.58" CO2_abs="970985.24" HC_abs="64.88" PMx_abs="76.58" NOx_abs="368.90" fuel_abs="314777.24" electricity_abs="0.00"/>
    </tripinfo>
    <tripinfo id="18" depart="36.00" departLane="453672432#0_2" departPos="3.06" departSpeed="28.01" departDelay="0.00" arrival="273.00" arrivalLane="-15089975_1" arrivalPos="0.56" arrivalSpeed="8.36" duration="237.00" routeLength="2739.73" waitingTime="54.00" waitingCount="4" stopTime="0.00" timeLoss="112.50" rerouteNo="0" devices="tripinfo_18 emissions_18" vType="DEFAULT_VEHTYPE" speedFactor="1.01" vaporized="">
        <emissions CO_abs="8445.50" CO2_abs="847454.63" HC_abs="56.52" PMx_abs="70.47" NOx_abs="322.31" fuel_abs="274731.46" electricity_abs="0.00"/>
    </tripinfo>
    <tripinfo id="67" depart="134.00" departLane="746791799#2_1" departPos="1.47" departSpeed="9.26" departDelay="0.00" arrival="273.00" arrivalLane="-184852743#1_0" arrivalPos="10.59" arrivalSpeed="10.94" duration="139.00" routeLength="1058.76" waitingTime="24.00" waitingCount="3" stopTime="0.00" timeLoss="52.33" rerouteNo="0" devices="tripinfo_67 emissions_67" vType="DEFAULT_VEHTYPE" speedFactor="0.83" vaporized="">
        <emissions CO_abs="1937.75" CO2_abs="360750.83" HC_abs="12.85" PMx_abs="23.99" NOx_abs="123.86" fuel_abs="116950.25" electricity_abs="0.00"/>
    </tripinfo>
    <tripinfo id="37" depart="74.00" departLane="987614114#0_0" departPos="5.26" departSpeed="7.56" departDelay="0.00" arrival="274.00" arrivalLane="27260010_1" arrivalPos="45.52" arrivalSpeed="24.05" duration="200.00" routeLength="2644.41" waitingTime="12.00" waitingCount="3" stopTime="0.00" timeLoss="53.86" rerouteNo="0" devices="tripinfo_37 emissions_37" vType="DEFAULT_VEHTYPE" speedFactor="0.88" vaporized="">
        <emissions CO_abs="6704.19" CO2_abs="693123.78" HC_abs="44.88" PMx_abs="67.58" NOx_abs="259.76" fuel_abs="224699.89" electricity_abs="0.00"/>
    </tripinfo>
    <tripinfo id="19" depart="38.00" departLane="-706539634#1_0" departPos="15.13" departSpeed="5.75" departDelay="0.00" arrival="275.00" arrivalLane="-792388510#0_0" arrivalPos="0.68" arrivalSpeed="9.49" duration="237.00" routeLength="2700.40" waitingTime="0.00" waitingCount="0" stopTime="0.00" timeLoss="37.41" rerouteNo="0" devices="tripinfo_19 emissions_19" vType="DEFAULT_VEHTYPE" speedFactor="0.87" vaporized="">
        <emissions CO_abs="5586.00" CO2_abs="669067.32" HC_abs="37.44" PMx_abs="65.04" NOx_abs="243.28" fuel_abs="216901.67" electricity_abs="0.00"/>
    </tripinfo>
    <tripinfo id="93" depart="186.00" departLane="-183688028#2_0" departPos="6.91" departSpeed="9.80" departDelay="0.00" arrival="281.00" arrivalLane="28553544#1_0" arrivalPos="137.63" arrivalSpeed="13.77" duration="95.00" routeLength="1075.10" waitingTime="0.00" waitingCount="0" stopTime="0.00" timeLoss="16.85" rerouteNo="0" devices="tripinfo_93 emissions_93" vType="DEFAULT_VEHTYPE" speedFactor="1.02" vaporized="">
        <emissions CO_abs="1733.49" CO2_abs="280963.92" HC_abs="11.52" PMx_abs="24.37" NOx_abs="95.11" fuel_abs="91084.41" electricity_abs="0.00"/>
    </tripinfo>
    <tripinfo id="79" depart="158.00" departLane="-746785988_0" departPos="10.12" departSpeed="10.71" departDelay="0.00" arrival="283.00" arrivalLane="750563083#0_2" arrivalPos="16.59" arrivalSpeed="25.25" duration="125.00" routeLength="1032.22" waitingTime="37.00" waitingCount="3" stopTime="0.00" timeLoss="79.15" rerouteNo="0" devices="tripinfo_79 emissions_79" vType="DEFAULT_VEHTYPE" speedFactor="1.03" vaporized="">
        <emissions CO_abs="4567.61" CO2_abs="506851.79" HC_abs="30.27" PMx_abs="30.62" NOx_abs="187.44" fuel_abs="164313.06" electricity_abs="0.00"/>
    </tripinfo>
    <tripinfo id="70" depart="140.00" departLane="777645897_0" departPos="7.57" departSpeed="10.02" departDelay="0.00" arrival="294.00" arrivalLane="28539915#0_1" arrivalPos="67.09" arrivalSpeed="11.46" duration="154.00" routeLength="1610.20" waitingTime="2.00" waitingCount="1" stopTime="0.00" timeLoss="35.16" rerouteNo="0" devices="tripinfo_70 emissions_70" vType="DEFAULT_VEHTYPE" speedFactor="0.86" vaporized="">
        <emissions CO_abs="3157.55" CO2_abs="453293.04" HC_abs="21.00" PMx_abs="38.37" NOx_abs="157.90" fuel_abs="146950.77" electricity_abs="0.00"/>
    </tripinfo>
    <tripinfo id="64" depart="128.00" departLane="-706539634#6_0" departPos="4.11" departSpeed="13.61" departDelay="0.00" arrival="296.00" arrivalLane="-4940249#3_0" arrivalPos="4.06" arrivalSpeed="7.12" duration="168.00" routeLength="2133.16" waitingTime="13.00" waitingCount="2" stopTime="0.00" timeLoss="60.15" rerouteNo="0" devices="tripinfo_64 emissions_64" vType="DEFAULT_VEHTYPE" speedFactor="0.98" vaporized="">
        <emissions CO_abs="8160.14" CO2_abs="748760.99" HC_abs="54.29" PMx_abs="60.45" NOx_abs="285.71" fuel_abs="242735.49" electricity_abs="0.00"/>
    </tripinfo>