<?xml version="1.0" encoding="UTF-8"?>

<!-- generated on 2026-01-13T02:03:00.363832+08:00 by Eclipse SUMO GUI 1.25.0
<sumoConfiguration xmlns:xsi="http://www.w3.org/2001/XMLSchema-instance" xsi:noNamespaceSchemaLocation="http://sumo.dlr.de/xsd/sumoConfiguration.xsd">

    <input>
        <net-file value="final_map.net.xml"/>
        <route-files value="trips_high.xml"/>
        <additional-files value="osm.poly.xml.gz,output.add.xml,vtypes.add.xml"/>
    </input>

    <output>
        <summary-output value="data\data_selfish_high_summary.xml"/>
        <tripinfo-output value="data\data_selfish_high_tripinfo.xml"/>
        <statistic-output value="data\data_selfish_high_stats.xml"/>
    </output>

    <processing>
        <ignore-route-errors value="true"/>
        <time-to-teleport value="300"/>
        <tls.actuated.jam-threshold value="30"/>
    </processing>

    <routing>
        <device.rerouting.adaptation-steps value="18"/>
        <device.rerouting.adaptation-interval value="10"/>
    </routing>

    <report>
        <verbose value="true"/>
        <duration-log.statistics value="true"/>
        <no-step-log value="true"/>
    </report>

    <emissions>
        <device.emissions.probability value="1.0"/>
    </emissions>

    <gui_only>
        <gui-settings-file value="osm.view.xml"/>
    </gui_only>

</sumoConfiguration>
-->

<tripinfos xmlns:xsi="http://www.w3.org/2001/XMLSchema-instance" xsi:noNamespaceSchemaLocation="http://sumo.dlr.de/xsd/tripinfo_file.xsd">
    <tripinfo id="15" depart="11.00" departLane="744999974#1_1" departPos="4.60" departSpeed="0.00" departDelay="0.50" arrival="18.00" arrivalLane="-1279681436#0_0" arrivalPos="23.22" arrivalSpeed="12.54" duration="7.00" routeLength="50.59" waitingTime="0.00" waitingCount="0" stopTime="0.00" timeLoss="2.98" rerouteNo="0" devices="tripinfo_15 routing_15 emissions_15" vType="thesis_car" speedFactor="0.93" vaporized="">
        <emissions CO_abs="873.60" CO2_abs="39309.62" HC_abs="4.91" PMx_abs="0.80" NOx_abs="16.92" fuel_abs="12538.00" electricity_abs="0.00"/>
    </tripinfo>
    <tripinfo id="28" depart="20.00" departLane="1279681436#0_0" departPos="4.60" departSpeed="0.00" departDelay="0.40" arrival="29.00" arrivalLane="-1279681436#0_0" arrivalPos="23.22" arrivalSpeed="10.36" duration="9.00" routeLength="46.51" waitingTime="0.00" waitingCount="0" stopTime="0.00" timeLoss="5.09" rerouteNo="0" devices="tripinfo_28 routing_28 emissions_28" vType="thesis_car" speedFactor="1.13" vaporized="">
        <emissions CO_abs="982.27" CO2_abs="38063.98" HC_abs="5.37" PMx_abs="0.76" NOx_abs="16.43" fuel_abs="12140.79" electricity_abs="0.00"/>
    </tripinfo>
    <tripinfo id="30" depart="21.00" departLane="1212501346_0" departPos="4.60" departSpeed="0.00" departDelay="0.00" arrival="37.00" arrivalLane="747939432_0" arrivalPos="37.82" arrivalSpeed="31.01" duration="16.00" routeLength="221.82" waitingTime="0.00" waitingCount="0" stopTime="0.00" timeLoss="8.30" rerouteNo="1" devices="tripinfo_30 routing_30 emissions_30" vType="thesis_car" speedFactor="1.18" vaporized="">
        <emissions CO_abs="3305.65" CO2_abs="184043.23" HC_abs="19.57" PMx_abs="4.20" NOx_abs="79.84" fuel_abs="58700.68" electricity_abs="0.00"/>
    </tripinfo>
    <tripinfo id="10" depart="7.00" departLane="750570767_2" departPos="4.60" departSpeed="0.00" departDelay="0.00" arrival="42.00" arrivalLane="32487759#2_2" arrivalPos="16.69" arrivalSpeed="14.40" duration="35.00" routeLength="412.59" waitingTime="0.00" waitingCount="0" stopTime="0.00" timeLoss="10.96" rerouteNo="1" devices="tripinfo_10 routing_10 emissions_10" vType="thesis_car" speedFactor="1.09" vaporized="">
        <emissions CO_abs="2325.22" CO2_abs="153733.38" HC_abs="14.17" PMx_abs="2.88" NOx_abs="63.49" fuel_abs="49033.69" electricity_abs="0.00"/>
    </tripinfo>
    <tripinfo id="13" depart="11.00" departLane="747228982#0_0" departPos="4.60" departSpeed="0.00" departDelay="1.90" arrival="48.00" arrivalLane="744944961_0" arrivalPos="55.92" arrivalSpeed="15.09" duration="37.00" routeLength="216.26" waitingTime="12.00" waitingCount="1" stopTime="0.00" timeLoss="25.36" rerouteNo="1" devices="tripinfo_13 routing_13 emissions_13" vType="thesis_car" speedFactor="1.12" vaporized="">
        <emissions CO_abs="4346.38" CO2_abs="152534.09" HC_abs="23.42" PMx_abs="3.25" NOx_abs="66.27" fuel_abs="48651.98" electricity_abs="0.00"/>
    </tripinfo>
    <tripinfo id="39" depart="28.00" departLane="-746423901#2_1" departPos="4.60" departSpeed="0.00" departDelay="0.70" arrival="50.00" arrivalLane="-1279681436#0_0" arrivalPos="23.22" arrivalSpeed="12.16" duration="22.00" routeLength="130.18" waitingTime="0.00" waitingCount="0" stopTime="0.00" timeLoss="8.85" rerouteNo="1" devices="tripinfo_39 routing_39 emissions_39" vType="thesis_car" speedFactor="0.90" vaporized="">
        <emissions CO_abs="1972.12" CO2_abs="89487.00" HC_abs="11.11" PMx_abs="1.84" NOx_abs="38.80" fuel_abs="28542.29" electricity_abs="0.00"/>
    </tripinfo>
    <tripinfo id="0" depart="0.00" departLane="744645397#1_1" departPos="4.60" departSpeed="0.00" departDelay="0.00" arrival="57.00" arrivalLane="-1279681436#0_0" arrivalPos="23.22" arrivalSpeed="13.91" duration="57.00" routeLength="611.51" waitingTime="12.00" waitingCount="1" stopTime="0.00" timeLoss="27.73" rerouteNo="1" devices="tripinfo_0 routing_0 emissions_0" vType="thesis_car" speedFactor="1.06" vaporized="">
        <emissions CO_abs="6300.81" CO2_abs="285199.41" HC_abs="35.55" PMx_abs="6.11" NOx_abs="120.80" fuel_abs="90965.72" electricity_abs="0.00"/>
    </tripinfo>
    <tripinfo id="17" depart="12.00" departLane="-745055614#2_0" departPos="4.60" departSpeed="0.00" departDelay="0.10" arrival="58.00" arrivalLane="174398011#3_0" arrivalPos="38.95" arrivalSpeed="7.68" duration="46.00" routeLength="313.84" waitingTime="0.00" waitingCount="0" stopTime="0.00" timeLoss="5.29" rerouteNo="1" devices="tripinfo_17 routing_17 emissions_17" vType="thesis_car" speedFactor="0.94" vaporized="">
        <emissions CO_abs="2232.63" CO2_abs="95330.45" HC_abs="12.32" PMx_abs="1.41" NOx_abs="37.87" fuel_abs="30406.78" electricity_abs="0.00"/>
    </tripinfo>
    <tripinfo id="54" depart="38.00" departLane="747951014#0_0" departPos="4.60" departSpeed="0.00" departDelay="0.20" arrival="61.00" arrivalLane="747939433#1_0" arrivalPos="71.35" arrivalSpeed="13.53" duration="23.00" routeLength="204.80" waitingTime="0.00" waitingCount="0" stopTime="0.00" timeLoss="9.17" rerouteNo="1" devices="tripinfo_54 routing_54 emissions_54" vType="thesis_car" speedFactor="1.00" vaporized="">
        <emissions CO_abs="1649.57" CO2_abs="91558.02" HC_abs="9.65" PMx_abs="1.68" NOx_abs="38.10" fuel_abs="29202.86" electricity_abs="0.00"/>
    </tripinfo>
    <tripinfo id="46" depart="33.00" departLane="747951014#0_0" departPos="4.60" departSpeed="0.00" departDelay="0.80" arrival="66.00" arrivalLane="184852741#1_0" arrivalPos="46.06" arrivalSpeed="12.87" duration="33.00" routeLength="314.11" waitingTime="0.00" waitingCount="0" stopTime="0.00" timeLoss="11.84" rerouteNo="1" devices="tripinfo_46 routing_46 emissions_46" vType="thesis_car" speedFactor="1.00" vaporized="">
        <emissions CO_abs="1918.99" CO2_abs="115429.70" HC_abs="11.39" PMx_abs="2.00" NOx_abs="46.99" fuel_abs="36816.89" electricity_abs="0.00"/>
    </tripinfo>
    <tripinfo id="1" depart="1.00" departLane="1279681436#0_0" departPos="4.60" departSpeed="0.00" departDelay="0.30" arrival="69.00" arrivalLane="174398008#1_0" arrivalPos="14.14" arrivalSpeed="7.33" duration="68.00" routeLength="700.71" waitingTime="0.00" waitingCount="0" stopTime="0.00" timeLoss="10.22" rerouteNo="1" devices="tripinfo_1 routing_1 emissions_1" vType="thesis_car" speedFactor="0.94" vaporized="">
        <emissions CO_abs="2877.67" CO2_abs="200794.88" HC_abs="17.71" PMx_abs="3.24" NOx_abs="79.61" fuel_abs="64044.59" electricity_abs="0.00"/>
    </tripinfo>
    <tripinfo id="7" depart="5.00" departLane="747228982#0_0" departPos="4.60" departSpeed="0.00" departDelay="0.10" arrival="69.00" arrivalLane="-1279681436#0_0" arrivalPos="23.22" arrivalSpeed="11.36" duration="64.00" routeLength="472.84" waitingTime="13.00" waitingCount="1" stopTime="0.00" timeLoss="28.47" rerouteNo="1" devices="tripinfo_7 routing_7 emissions_7" vType="thesis_car" speedFactor="0.89" vaporized="">
        <emissions CO_abs="5317.04" CO2_abs="206352.49" HC_abs="29.00" PMx_abs="3.94" NOx_abs="86.58" fuel_abs="65817.96" electricity_abs="0.00"/>
    </tripinfo>
    <tripinfo id="27" depart="19.00" departLane="747951014#0_0" departPos="4.60" departSpeed="0.00" departDelay="0.10" arrival="70.00" arrivalLane="745062638#1_0" arrivalPos="33.30" arrivalSpeed="13.14" duration="51.00" routeLength="302.70" waitingTime="13.00" waitingCount="2" stopTime="0.00" timeLoss="28.78" rerouteNo="1" devices="tripinfo_27 routing_27 emissions_27" vType="thesis_car" speedFactor="0.95" vaporized="">
        <emissions CO_abs="5308.40" CO2_abs="190188.21" HC_abs="28.63" PMx_abs="3.89" NOx_abs="81.82" fuel_abs="60662.16" electricity_abs="0.00"/>
    </tripinfo>
    <tripinfo id="34" depart="24.00" departLane="1279681436#0_0" departPos="4.60" departSpeed="0.00" departDelay="0.20" arrival="70.00" arrivalLane="174398024#1_1" arrivalPos="18.74" arrivalSpeed="8.16" duration="46.00" routeLength="360.65" waitingTime="0.00" waitingCount="0" stopTime="0.00" timeLoss="12.19" rerouteNo="1" devices="tripinfo_34 routing_34 emissions_34" vType="thesis_car" speedFactor="0.99" vaporized="">
        <emissions CO_abs="2577.88" CO2_abs="131204.57" HC_abs="14.67" PMx_abs="2.27" NOx_abs="53.81" fuel_abs="41848.58" electricity_abs="0.00"/>
    </tripinfo>
    <tripinfo id="62" depart="44.00" departLane="-747447020#1_0" departPos="4.60" departSpeed="0.00" departDelay="0.60" arrival="71.00" arrivalLane="174398008#1_0" arrivalPos="14.14" arrivalSpeed="7.62" duration="27.00" routeLength="185.06" waitingTime="0.00" waitingCount="0" stopTime="0.00" timeLoss="5.22" rerouteNo="1" devices="tripinfo_62 routing_62 emissions_62" vType="thesis_car" speedFactor="1.02" vaporized="">
        <emissions CO_abs="1385.84" CO2_abs="58043.28" HC_abs="7.63" PMx_abs="0.88" NOx_abs="23.21" fuel_abs="18513.58" electricity_abs="0.00"/>
    </tripinfo>
    <tripinfo id="6" depart="5.00" departLane="1279681436#0_0" departPos="4.60" departSpeed="0.00" departDelay="0.80" arrival="75.00" arrivalLane="744634701#1_0" arrivalPos="89.90" arrivalSpeed="8.12" duration="70.00" routeLength="787.09" waitingTime="0.00" waitingCount="0" stopTime="0.00" timeLoss="15.54" rerouteNo="1" devices="tripinfo_6 routing_6 emissions_6" vType="thesis_car" speedFactor="1.05" vaporized="">
        <emissions CO_abs="4149.93" CO2_abs="263728.50" HC_abs="25.12" PMx_abs="5.01" NOx_abs="109.54" fuel_abs="84116.98" electricity_abs="0.00"/>
    </tripinfo>
    <tripinfo id="18" depart="13.00" departLane="-746653786#0_1" departPos="4.60" departSpeed="0.00" departDelay="0.40" arrival="81.00" arrivalLane="27788646#1_1" arrivalPos="10.31" arrivalSpeed="19.55" duration="68.00" routeLength="448.90" waitingTime="21.00" waitingCount="2" stopTime="0.00" timeLoss="38.25" rerouteNo="1" devices="tripinfo_18 routing_18 emissions_18" vType="thesis_car" speedFactor="0.94" vaporized="">
        <emissions CO_abs="7333.36" CO2_abs="259471.73" HC_abs="39.45" PMx_abs="5.36" NOx_abs="110.72" fuel_abs="82760.81" electricity_abs="0.00"/>
    </tripinfo>
    <tripinfo id="53" depart="38.00" departLane="174398024#2_0" departPos="4.60" departSpeed="0.00" departDelay="0.90" arrival="83.00" arrivalLane="-1279681436#0_0" arrivalPos="23.22" arrivalSpeed="12.46" duration="45.00" routeLength="489.27" waitingTime="0.00" waitingCount="0" stopTime="0.00" timeLoss="10.09" rerouteNo="1" devices="tripinfo_53 routing_53 emissions_53" vType="thesis_car" speedFactor="1.10" vaporized="">
        <emissions CO_abs="2333.04" CO2_abs="156602.19" HC_abs="14.03" PMx_abs="2.68" NOx_abs="62.88" fuel_abs="49948.94" electricity_abs="0.00"/>
    </tripinfo>
    <tripinfo id="86" depart="61.00" departLane="81548613#0_1" departPos="4.60" departSpeed="0.00" departDelay="0.80" arrival="88.00" arrivalLane="744634701#1_0" arrivalPos="89.90" arrivalSpeed="7.75" duration="27.00" routeLength="199.11" waitingTime="0.00" waitingCount="0" stopTime="0.00" timeLoss="4.42" rerouteNo="1" devices="tripinfo_86 routing_86 emissions_86" vType="thesis_car" speedFactor="1.00" vaporized="">
        <emissions CO_abs="1411.64" CO2_abs="65029.08" HC_abs="7.92" PMx_abs="1.03" NOx_abs="26.24" fuel_abs="20741.65" electricity_abs="0.00"/>
    </tripinfo>
    <tripinfo id="8" depart="7.00" departLane="747228982#0_0" departPos="4.60" departSpeed="0.00" departDelay="1.40" arrival="89.00" arrivalLane="744645402#1_1" arrivalPos="55.45" arrivalSpeed="25.27" duration="82.00" routeLength="886.04" waitingTime="14.00" waitingCount="2" stopTime="0.00" timeLoss="41.27" rerouteNo="1" devices="tripinfo_8 routing_8 emissions_8" vType="thesis_car" speedFactor="0.94" vaporized="">
        <emissions CO_abs="8143.36" CO2_abs="390496.68" HC_abs="46.12" PMx_abs="8.05" NOx_abs="161.86" fuel_abs="124550.87" electricity_abs="0.00"/>
    </tripinfo>
    <tripinfo id="73" depart="52.00" departLane="96487801#3_0" departPos="4.60" departSpeed="0.00" departDelay="0.90" arrival="90.00" arrivalLane="-184852733#0_0" arrivalPos="59.42" arrivalSpeed="8.71" duration="38.00" routeLength="266.96" waitingTime="0.00" waitingCount="0" stopTime="0.00" timeLoss="6.18" rerouteNo="1" devices="tripinfo_73 routing_73 emissions_73" vType="thesis_car" speedFactor="1.06" vaporized="">
        <emissions CO_abs="2083.46" CO2_abs="98147.00" HC_abs="11.73" PMx_abs="1.53" NOx_abs="39.43" fuel_abs="31304.93" electricity_abs="0.00"/>
    </tripinfo>
    <tripinfo id="38" depart="27.00" departLane="96489258#1_0" departPos="4.60" departSpeed="0.00" departDelay="0.40" arrival="95.00" arrivalLane="744632144#0_0" arrivalPos="5.21" arrivalSpeed="8.72" duration="68.00" routeLength="752.87" waitingTime="0.00" waitingCount="0" stopTime="0.00" timeLoss="24.45" rerouteNo="1" devices="tripinfo_38 routing_38 emissions_38" vType="thesis_car" speedFactor="1.10" vaporized="">
        <emissions CO_abs="4766.80" CO2_abs="293769.16" HC_abs="28.69" PMx_abs="5.71" NOx_abs="122.46" fuel_abs="93698.51" electricity_abs="0.00"/>
    </tripinfo>
    <tripinfo id="41" depart="29.00" departLane="747228982#0_0" departPos="4.60" departSpeed="0.00" departDelay="0.30" arrival="95.00" arrivalLane="32836569#1_0" arrivalPos="42.32" arrivalSpeed="6.98" duration="66.00" routeLength="788.22" waitingTime="0.00" waitingCount="0" stopTime="0.00" timeLoss="25.26" rerouteNo="1" devices="tripinfo_41 routing_41 emissions_41" vType="thesis_car" speedFactor="0.96" vaporized="">
        <emissions CO_abs="5560.96" CO2_abs="319985.93" HC_abs="32.97" PMx_abs="6.55" NOx_abs="134.67" fuel_abs="102060.34" electricity_abs="0.00"/>
    </tripinfo>
    <tripinfo id="32" depart="23.00" departLane="744926195#0_2" departPos="4.60" departSpeed="0.00" departDelay="0.60" arrival="96.00" arrivalLane="32488019#2_0" arrivalPos="17.28" arrivalSpeed="13.28" duration="73.00" routeLength="565.66" waitingTime="5.00" waitingCount="1" stopTime="0.00" timeLoss="25.14" rerouteNo="1" devices="tripinfo_32 routing_32 emissions_32" vType="thesis_car" speedFactor="1.01" vaporized="">
        <emissions CO_abs="5234.43" CO2_abs="238221.79" HC_abs="29.40" PMx_abs="4.54" NOx_abs="100.35" fuel_abs="75982.36" electricity_abs="0.00"/>
    </tripinfo>
    <tripinfo id="80" depart="56.00" departLane="27788646#3_1" departPos="4.60" departSpeed="0.00" departDelay="0.00" arrival="96.00" arrivalLane="-1279681436#0_0" arrivalPos="23.22" arrivalSpeed="13.21" duration="40.00" routeLength="472.46" waitingTime="0.00" waitingCount="0" stopTime="0.00" timeLoss="12.56" rerouteNo="1" devices="tripinfo_80 routing_80 emissions_80" vType="thesis_car" speedFactor="1.03" vaporized="">
        <emissions CO_abs="2704.41" CO2_abs="176032.14" HC_abs="16.39" PMx_abs="3.30" NOx_abs="72.68" fuel_abs="56145.97" electricity_abs="0.00"/>
    </tripinfo>
    <tripinfo id="91" depart="64.00" departLane="1279681436#0_0" departPos="4.60" departSpeed="0.00" departDelay="0.30" arrival="96.00" arrivalLane="-744949906#0_1" arrivalPos="55.96" arrivalSpeed="11.69" duration="32.00" routeLength="315.85" waitingTime="0.00" waitingCount="0" stopTime="0.00" timeLoss="4.85" rerouteNo="1" devices="tripinfo_91 routing_91 emissions_91" vType="thesis_car" speedFactor="0.89" vaporized="">
        <emissions CO_abs="1391.34" CO2_abs="89893.86" HC_abs="8.35" PMx_abs="1.41" NOx_abs="35.50" fuel_abs="28672.22" electricity_abs="0.00"/>
    </tripinfo>
    <tripinfo id="84" depart="59.00" departLane="51355540#1_3" departPos="4.60" departSpeed="0.00" departDelay="0.20" arrival="97.00" arrivalLane="744926195#1_0" arrivalPos="0.20" arrivalSpeed="15.70" duration="38.00" routeLength="501.78" waitingTime="0.00" waitingCount="0" stopTime="0.00" timeLoss="14.24" rerouteNo="1" devices="tripinfo_84 routing_84 emissions_84" vType="thesis_car" speedFactor="1.15" vaporized="">
        <emissions CO_abs="3275.01" CO2_abs="211235.58" HC_abs="19.91" PMx_abs="4.37" NOx_abs="89.72" fuel_abs="67373.77" electricity_abs="0.00"/>
    </tripinfo>
    <tripinfo id="33" depart="24.00" departLane="750570767_0" departPos="4.60" departSpeed="0.00" departDelay="0.90" arrival="100.00" arrivalLane="32836569#1_0" arrivalPos="42.32" arrivalSpeed="9.02" duration="76.00" routeLength="683.42" waitingTime="23.00" waitingCount="1" stopTime="0.00" timeLoss="49.65" rerouteNo="1" devices="tripinfo_33 routing_33 emissions_33" vType="thesis_car" speedFactor="1.17" vaporized="">
        <emissions CO_abs="9283.86" CO2_abs="379067.20" HC_abs="51.43" PMx_abs="8.41" NOx_abs="164.71" fuel_abs="120905.38" electricity_abs="0.00"/>
    </tripinfo>
    <tripinfo id="35" depart="25.00" departLane="569215926_2" departPos="4.28" departSpeed="0.00" departDelay="0.50" arrival="100.00" arrivalLane="184852733#1_0" arrivalPos="45.32" arrivalSpeed="7.95" duration="75.00" routeLength="473.71" waitingTime="14.00" waitingCount="2" stopTime="0.00" timeLoss="44.14" rerouteNo="1" devices="tripinfo_35 routing_35 emissions_35" vType="thesis_car" speedFactor="1.02" vaporized="">
        <emissions CO_abs="7160.53" CO2_abs="260888.45" HC_abs="38.78" PMx_abs="5.37" NOx_abs="112.25" fuel_abs="83212.52" electricity_abs="0.00"/>
    </tripinfo>
    <tripinfo id="9" depart="7.00" departLane="23370756_0" departPos="4.60" departSpeed="0.00" departDelay="0.70" arrival="102.00" arrivalLane="-746649485#0_1" arrivalPos="86.80" arrivalSpeed="10.72" duration="95.00" routeLength="413.03" waitingTime="36.00" waitingCount="2" stopTime="0.00" timeLoss="57.68" rerouteNo="1" devices="tripinfo_9 routing_9 emissions_9" vType="thesis_car" speedFactor="0.86" vaporized="">
        <emissions CO_abs="10188.25" CO2_abs="277225.56" HC_abs="52.88" PMx_abs="5.77" NOx_abs="119.79" fuel_abs="88424.93" electricity_abs="0.00"/>
    </tripinfo>
    <tripinfo id="49" depart="35.00" departLane="744632165#1_3" departPos="4.60" departSpeed="0.00" departDelay="0.70" arrival="102.00" arrivalLane="-746423905#1_1" arrivalPos="45.15" arrivalSpeed="6.64" duration="67.00" routeLength="540.86" waitingTime="4.00" waitingCount="1" stopTime="0.00" timeLoss="22.60" rerouteNo="1" devices="tripinfo_49 routing_49 emissions_49" vType="thesis_car" speedFactor="0.85" vaporized="">
        <emissions CO_abs="5042.38" CO2_abs="222357.83" HC_abs="28.21" PMx_abs="4.33" NOx_abs="93.84" fuel_abs="70922.48" electricity_abs="0.00"/>
    </tripinfo>
    <tripinfo id="79" depart="56.00" departLane="747951014#0_0" departPos="4.60" departSpeed="0.00" departDelay="0.70" arrival="102.00" arrivalLane="-747447020#0_1" arrivalPos="3.52" arrivalSpeed="9.16" duration="46.00" routeLength="432.82" waitingTime="0.00" waitingCount="0" stopTime="0.00" timeLoss="17.86" rerouteNo="1" devices="tripinfo_79 routing_79 emissions_79" vType="thesis_car" speedFactor="1.09" vaporized="">
        <emissions CO_abs="3252.41" CO2_abs="176863.15" HC_abs="18.90" PMx_abs="3.35" NOx_abs="73.87" fuel_abs="56411.27" electricity_abs="0.00"/>
    </tripinfo>
    <tripinfo id="126" depart="89.00" departLane="-747447020#1_1" departPos="4.60" departSpeed="0.00" departDelay="0.80" arrival="102.00" arrivalLane="747447020#1_1" arrivalPos="18.06" arrivalSpeed="10.90" duration="13.00" routeLength="43.83" waitingTime="1.00" waitingCount="1" stopTime="0.00" timeLoss="8.50" rerouteNo="1" devices="tripinfo_126 routing_126 emissions_126" vType="thesis_car" speedFactor="1.03" vaporized="">
        <emissions CO_abs="1522.64" CO2_abs="49144.86" HC_abs="8.09" PMx_abs="1.04" NOx_abs="21.52" fuel_abs="15675.22" electricity_abs="0.00"/>
    </tripinfo>
    <tripinfo id="11" depart="8.00" departLane="-746423901#2_0" departPos="4.60" departSpeed="0.00" departDelay="0.30" arrival="105.00" arrivalLane="-184852733#0_0" arrivalPos="59.42" arrivalSpeed="7.83" duration="97.00" routeLength="908.52" waitingTime="9.00" waitingCount="1" stopTime="0.00" timeLoss="37.60" rerouteNo="1" devices="tripinfo_11 routing_11 emissions_11" vType="thesis_car" speedFactor="1.03" vaporized="">
        <emissions CO_abs="7330.19" CO2_abs="363931.45" HC_abs="41.89" PMx_abs="7.01" NOx_abs="151.85" fuel_abs="116077.89" electricity_abs="0.00"/>
    </tripinfo>
    <tripinfo id="74" depart="53.00" departLane="27788646#3_1" departPos="4.60" departSpeed="0.00" departDelay="1.20" arrival="105.00" arrivalLane="32487759#2_2" arrivalPos="16.69" arrivalSpeed="13.05" duration="52.00" routeLength="526.50" waitingTime="0.00" waitingCount="0" stopTime="0.00" timeLoss="16.56" rerouteNo="1" devices="tripinfo_74 routing_74 emissions_74" vType="thesis_car" speedFactor="0.96" vaporized="">
        <emissions CO_abs="3679.93" CO2_abs="211893.82" HC_abs="21.63" PMx_abs="3.96" NOx_abs="87.69" fuel_abs="67584.43" electricity_abs="0.00"/>
    </tripinfo>
    <tripinfo id="61" depart="43.00" departLane="96487804#2_0" departPos="4.60" departSpeed="0.00" departDelay="0.30" arrival="106.00" arrivalLane="744645402#1_1" arrivalPos="55.45" arrivalSpeed="19.24" duration="63.00" routeLength="342.38" waitingTime="15.00" waitingCount="2" stopTime="0.00" timeLoss="32.24" rerouteNo="1" devices="tripinfo_61 routing_61 emissions_61" vType="thesis_car" speedFactor="1.12" vaporized="">
        <emissions CO_abs="6030.35" CO2_abs="209879.34" HC_abs="32.40" PMx_abs="4.25" NOx_abs="90.03" fuel_abs="66942.98" electricity_abs="0.00"/>
    </tripinfo>
    <tripinfo id="81" depart="57.00" departLane="23370756_1" departPos="4.60" departSpeed="0.00" departDelay="0.30" arrival="106.00" arrivalLane="96487801#3_0" arrivalPos="11.14" arrivalSpeed="7.64" duration="49.00" routeLength="216.97" waitingTime="13.00" waitingCount="2" stopTime="0.00" timeLoss="26.51" rerouteNo="1" devices="tripinfo_81 routing_81 emissions_81" vType="thesis_car" speedFactor="1.00" vaporized="">
        <emissions CO_abs="4794.44" CO2_abs="136708.20" HC_abs="25.02" PMx_abs="2.76" NOx_abs="58.80" fuel_abs="43604.90" electricity_abs="0.00"/>
    </tripinfo>
    <tripinfo id="94" depart="66.00" departLane="319060501#1_1" departPos="4.60" departSpeed="0.00" departDelay="0.20" arrival="107.00" arrivalLane="744634701#1_0" arrivalPos="89.90" arrivalSpeed="9.01" duration="41.00" routeLength="323.66" waitingTime="0.00" waitingCount="0" stopTime="0.00" timeLoss="6.27" rerouteNo="1" devices="tripinfo_94 routing_94 emissions_94" vType="thesis_car" speedFactor="1.09" vaporized="">
        <emissions CO_abs="2119.14" CO2_abs="108498.04" HC_abs="12.15" PMx_abs="1.76" NOx_abs="43.86" fuel_abs="34606.32" electricity_abs="0.00"/>
    </tripinfo>
    <tripinfo id="97" depart="68.00" departLane="744944961_0" departPos="4.60" departSpeed="0.00" departDelay="0.10" arrival="107.00" arrivalLane="32487759#2_0" arrivalPos="16.69" arrivalSpeed="11.51" duration="39.00" routeLength="374.49" waitingTime="0.00" waitingCount="0" stopTime="0.00" timeLoss="8.68" rerouteNo="1" devices="tripinfo_97 routing_97 emissions_97" vType="thesis_car" speedFactor="0.91" vaporized="">
        <emissions CO_abs="2141.79" CO2_abs="122769.15" HC_abs="12.54" PMx_abs="2.05" NOx_abs="49.29" fuel_abs="39158.03" electricity_abs="0.00"/>
    </tripinfo>
    <tripinfo id="98" depart="69.00" departLane="184852733#0_0" departPos="4.60" departSpeed="0.00" departDelay="0.40" arrival="108.00" arrivalLane="744949908_1" arrivalPos="53.45" arrivalSpeed="15.38" duration="39.00" routeLength="316.55" waitingTime="0.00" waitingCount="0" stopTime="0.00" timeLoss="6.41" rerouteNo="1" devices="tripinfo_98 routing_98 emissions_98" vType="thesis_car" speedFactor="1.12" vaporized="">
        <emissions CO_abs="2267.80" CO2_abs="121214.97" HC_abs="13.16" PMx_abs="2.14" NOx_abs="49.96" fuel_abs="38662.24" electricity_abs="0.00"/>
    </tripinfo>
    <tripinfo id="60" depart="42.00" departLane="-96487803#1_0" departPos="4.60" departSpeed="0.00" departDelay="0.00" arrival="113.00" arrivalLane="32487759#2_2" arrivalPos="16.69" arrivalSpeed="14.65" duration="71.00" routeLength="653.62" waitingTime="3.00" waitingCount="1" stopTime="0.00" timeLoss="24.82" rerouteNo="1" devices="tripinfo_60 routing_60 emissions_60" vType="thesis_car" speedFactor="1.08" vaporized="">
        <emissions CO_abs="4941.19" CO2_abs="252059.89" HC_abs="28.23" PMx_abs="4.62" NOx_abs="103.34" fuel_abs="80396.03" electricity_abs="0.00"/>
    </tripinfo>
    <tripinfo id="130" depart="91.00" departLane="23370756_0" departPos="4.60" departSpeed="0.00" departDelay="0.00" arrival="113.00" arrivalLane="747447020#1_0" arrivalPos="18.06" arrivalSpeed="14.06" duration="22.00" routeLength="168.31" waitingTime="2.00" waitingCount="1" stopTime="0.00" timeLoss="9.61" rerouteNo="1" devices="tripinfo_130 routing_130 emissions_130" vType="thesis_car" speedFactor="1.03" vaporized="">
        <emissions CO_abs="2102.54" CO2_abs="87174.78" HC_abs="11.64" PMx_abs="1.73" NOx_abs="37.09" fuel_abs="27805.00" electricity_abs="0.00"/>
    </tripinfo>
    <tripinfo id="37" depart="26.00" departLane="27788646#2_2" departPos="4.60" departSpeed="0.00" departDelay="0.10" arrival="114.00" arrivalLane="1280054791_1" arrivalPos="55.68" arrivalSpeed="9.79" duration="88.00" routeLength="716.89" waitingTime="18.00" waitingCount="2" stopTime="0.00" timeLoss="50.13" rerouteNo="1" devices="tripinfo_37 routing_37 emissions_37" vType="thesis_car" speedFactor="1.18" vaporized="">
        <emissions CO_abs="8730.46" CO2_abs="358880.34" HC_abs="48.29" PMx_abs="7.53" NOx_abs="154.03" fuel_abs="114467.04" electricity_abs="0.00"/>
    </tripinfo>
    <tripinfo id="83" depart="59.00" departLane="750570767_0" departPos="4.60" departSpeed="0.00" departDelay="0.90" arrival="117.00" arrivalLane="96487804#2_0" arrivalPos="21.65" arrivalSpeed="7.77" duration="58.00" routeLength="686.75" waitingTime="0.00" waitingCount="0" stopTime="0.00" timeLoss="18.76" rerouteNo="1" devices="tripinfo_83 routing_83 emissions_83" vType="thesis_car" speedFactor="0.97" vaporized="">
        <emissions CO_abs="4558.80" CO2_abs="268216.18" HC_abs="27.16" PMx_abs="5.42" NOx_abs="112.13" fuel_abs="85548.28" electricity_abs="0.00"/>
    </tripinfo>
    <tripinfo id="112" depart="80.00" departLane="745062638#1_1" departPos="4.60" departSpeed="0.00" departDelay="1.60" arrival="117.00" arrivalLane="-96487804#0_0" arrivalPos="19.67" arrivalSpeed="8.36" duration="37.00" routeLength="244.39" waitingTime="0.00" waitingCount="0" stopTime="0.00" timeLoss="11.81" rerouteNo="1" devices="tripinfo_112 routing_112 emissions_112" vType="thesis_car" speedFactor="1.10" vaporized="">
        <emissions CO_abs="2498.38" CO2_abs="101207.61" HC_abs="13.72" PMx_abs="1.79" NOx_abs="42.02" fuel_abs="32281.12" electricity_abs="0.00"/>
    </tripinfo>
    <tripinfo id="29" depart="21.00" departLane="182331870#0_0" departPos="4.60" departSpeed="0.00" departDelay="0.70" arrival="119.00" arrivalLane="184852743#0_1" arrivalPos="24.94" arrivalSpeed="9.87" duration="98.00" routeLength="395.30" waitingTime="26.00" waitingCount="2" stopTime="0.00" timeLoss="58.90" rerouteNo="1" devices="tripinfo_29 routing_29 emissions_29" vType="thesis_car" speedFactor="0.93" vaporized="">
        <emissions CO_abs="9499.88" CO2_abs="266099.46" HC_abs="49.45" PMx_abs="5.38" NOx_abs="114.54" fuel_abs="84876.06" electricity_abs="0.00"/>
    </tripinfo>
    <tripinfo id="36" depart="26.00" departLane="744632165#1_0" departPos="4.60" departSpeed="0.00" departDelay="0.80" arrival="122.00" arrivalLane="747447020#1_1" arrivalPos="18.06" arrivalSpeed="12.83" duration="96.00" routeLength="586.25" waitingTime="33.00" waitingCount="3" stopTime="0.00" timeLoss="57.94" rerouteNo="1" devices="tripinfo_36 routing_36 emissions_36" vType="thesis_car" speedFactor="0.97" vaporized="">
        <emissions CO_abs="10641.09" CO2_abs="355113.77" HC_abs="56.73" PMx_abs="7.43" NOx_abs="152.88" fuel_abs="113266.93" electricity_abs="0.00"/>
    </tripinfo>
    <tripinfo id="42" depart="30.00" departLane="-744949906#0_0" departPos="4.60" departSpeed="0.00" departDelay="0.60" arrival="124.00" arrivalLane="32488019#2_0" arrivalPos="17.28" arrivalSpeed="13.96" duration="94.00" routeLength="874.08" waitingTime="6.00" waitingCount="1" stopTime="0.00" timeLoss="36.07" rerouteNo="1" devices="tripinfo_42 routing_42 emissions_42" vType="thesis_car" speedFactor="1.09" vaporized="">
        <emissions CO_abs="6615.33" CO2_abs="346522.16" HC_abs="38.31" PMx_abs="6.69" NOx_abs="145.05" fuel_abs="110524.84" electricity_abs="0.00"/>
    </tripinfo>
    <tripinfo id="43" depart="31.00" departLane="-174398011#1_0" departPos="4.60" departSpeed="0.00" departDelay="0.90" arrival="124.00" arrivalLane="744926195#2_0" arrivalPos="19.04" arrivalSpeed="13.80" duration="93.00" routeLength="499.71" waitingTime="28.00" waitingCount="3" stopTime="0.00" timeLoss="56.38" rerouteNo="1" devices="tripinfo_43 routing_43 emissions_43" vType="thesis_car" speedFactor="1.04" vaporized="">