<?xml version="1.0" encoding="UTF-8"?>

<!-- generated on 2026-01-13T02:02:18.702092+08:00 by Eclipse SUMO GUI 1.25.0
<sumoConfiguration xmlns:xsi="http://www.w3.org/2001/XMLSchema-instance" xsi:noNamespaceSchemaLocation="http://sumo.dlr.de/xsd/sumoConfiguration.xsd">

    <input>
        <net-file value="final_map.net.xml"/>
        <route-files value="trips_med.xml"/>
        <additional-files value="osm.poly.xml.gz,output.add.xml,vtypes.add.xml"/>
    </input>

    <output>
        <summary-output value="data\data_selfish_med_summary.xml"/>
        <tripinfo-output value="data\data_selfish_med_tripinfo.xml"/>
        <statistic-output value="data\data_selfish_med_stats.xml"/>
    </output>

    <processing>
        <ignore-route-errors value="true"/>
        <time-to-teleport value="300"/>
        <tls.actuated.jam-threshold value="30"/>
    </processing>

    <routing>
        <device.rerouting.adaptation-steps value="18"/>
        <device.rerouting.adaptation-interval value="10"/>
    </routing>

    <report>
        <verbose value="true"/>
        <duration-log.statistics value="true"/>
        <no-step-log value="true"/>
    </report>

    <emissions>
        <device.emissions.probability value="1.0"/>
    </emissions>

    <gui_only>
        <gui-settings-file value="osm.view.xml"/>
    </gui_only>

</sumoConfiguration>
-->

<tripinfos xmlns:xsi="http://www.w3.org/2001/XMLSchema-instance" xsi:noNamespaceSchemaLocation="http://sumo.dlr.de/xsd/tripinfo_file.xsd">
    <tripinfo id="15" depart="21.00" departLane="744999974#1_1" departPos="4.60" departSpeed="0.00" departDelay="0.00" arrival="28.00" arrivalLane="-1279681436#0_0" arrivalPos="23.22" arrivalSpeed="12.85" duration="7.00" routeLength="50.59" waitingTime="0.00" waitingCount="0" stopTime="0.00" timeLoss="2.94" rerouteNo="0" devices="tripinfo_15 routing_15 emissions_15" vType="thesis_car" speedFactor="0.93" vaporized="">
        <emissions CO_abs="888.56" CO2_abs="40303.65" HC_abs="5.00" PMx_abs="0.82" NOx_abs="17.38" fuel_abs="12855.05" electricity_abs="0.00"/>
    </tripinfo>
    <tripinfo id="13" depart="19.00" departLane="747228982#0_0" departPos="4.60" departSpeed="0.00" departDelay="0.80" arrival="45.00" arrivalLane="744944961_0" arrivalPos="55.92" arrivalSpeed="15.46" duration="26.00" routeLength="216.26" waitingTime="2.00" waitingCount="1" stopTime="0.00" timeLoss="15.13" rerouteNo="1" devices="tripinfo_13 routing_13 emissions_13" vType="thesis_car" speedFactor="1.12" vaporized="">
        <emissions CO_abs="2453.71" CO2_abs="120021.14" HC_abs="14.02" PMx_abs="2.36" NOx_abs="50.79" fuel_abs="38281.33" electricity_abs="0.00"/>
    </tripinfo>
    <tripinfo id="10" depart="14.00" departLane="750570767_2" departPos="4.60" departSpeed="0.00" departDelay="0.00" arrival="47.00" arrivalLane="32487759#2_2" arrivalPos="16.69" arrivalSpeed="14.08" duration="33.00" routeLength="412.59" waitingTime="0.00" waitingCount="0" stopTime="0.00" timeLoss="9.26" rerouteNo="1" devices="tripinfo_10 routing_10 emissions_10" vType="thesis_car" speedFactor="1.09" vaporized="">
        <emissions CO_abs="2071.66" CO2_abs="135681.30" HC_abs="12.54" PMx_abs="2.59" NOx_abs="56.01" fuel_abs="43275.89" electricity_abs="0.00"/>
    </tripinfo>
    <tripinfo id="28" depart="40.00" departLane="1279681436#0_0" departPos="4.60" departSpeed="0.00" departDelay="0.80" arrival="50.00" arrivalLane="-1279681436#0_0" arrivalPos="23.22" arrivalSpeed="10.55" duration="10.00" routeLength="46.51" waitingTime="0.00" waitingCount="0" stopTime="0.00" timeLoss="5.78" rerouteNo="0" devices="tripinfo_28 routing_28 emissions_28" vType="thesis_car" speedFactor="1.13" vaporized="">
        <emissions CO_abs="908.94" CO2_abs="38200.18" HC_abs="5.04" PMx_abs="0.78" NOx_abs="16.58" fuel_abs="12184.17" electricity_abs="0.00"/>
    </tripinfo>
    <tripinfo id="0" depart="0.00" departLane="744645397#1_1" departPos="4.60" departSpeed="0.00" departDelay="0.00" arrival="58.00" arrivalLane="-1279681436#0_0" arrivalPos="23.22" arrivalSpeed="14.37" duration="58.00" routeLength="611.51" waitingTime="12.00" waitingCount="1" stopTime="0.00" timeLoss="28.20" rerouteNo="1" devices="tripinfo_0 routing_0 emissions_0" vType="thesis_car" speedFactor="1.06" vaporized="">
        <emissions CO_abs="6379.41" CO2_abs="285871.10" HC_abs="35.86" PMx_abs="6.06" NOx_abs="120.81" fuel_abs="91180.05" electricity_abs="0.00"/>
    </tripinfo>
    <tripinfo id="30" depart="42.00" departLane="1212501346_0" departPos="4.60" departSpeed="0.00" departDelay="0.00" arrival="62.00" arrivalLane="747939432_0" arrivalPos="37.82" arrivalSpeed="27.53" duration="20.00" routeLength="221.82" waitingTime="0.00" waitingCount="0" stopTime="0.00" timeLoss="13.20" rerouteNo="1" devices="tripinfo_30 routing_30 emissions_30" vType="thesis_car" speedFactor="1.18" vaporized="">
        <emissions CO_abs="3313.23" CO2_abs="165318.50" HC_abs="19.11" PMx_abs="3.69" NOx_abs="71.71" fuel_abs="52728.69" electricity_abs="0.00"/>
    </tripinfo>
    <tripinfo id="7" depart="10.00" departLane="747228982#0_0" departPos="4.60" departSpeed="0.00" departDelay="0.20" arrival="67.00" arrivalLane="-1279681436#0_0" arrivalPos="23.22" arrivalSpeed="10.67" duration="57.00" routeLength="472.84" waitingTime="6.00" waitingCount="1" stopTime="0.00" timeLoss="21.40" rerouteNo="1" devices="tripinfo_7 routing_7 emissions_7" vType="thesis_car" speedFactor="0.89" vaporized="">
        <emissions CO_abs="4236.96" CO2_abs="188523.42" HC_abs="23.67" PMx_abs="3.55" NOx_abs="78.81" fuel_abs="60130.88" electricity_abs="0.00"/>
    </tripinfo>
    <tripinfo id="1" depart="2.00" departLane="1279681436#0_0" departPos="4.60" departSpeed="0.00" departDelay="0.60" arrival="70.00" arrivalLane="174398008#1_0" arrivalPos="14.14" arrivalSpeed="6.61" duration="68.00" routeLength="700.71" waitingTime="0.00" waitingCount="0" stopTime="0.00" timeLoss="10.17" rerouteNo="1" devices="tripinfo_1 routing_1 emissions_1" vType="thesis_car" speedFactor="0.94" vaporized="">
        <emissions CO_abs="2762.24" CO2_abs="192475.94" HC_abs="16.82" PMx_abs="3.02" NOx_abs="75.40" fuel_abs="61391.32" electricity_abs="0.00"/>
    </tripinfo>
    <tripinfo id="39" depart="55.00" departLane="-746423901#2_1" departPos="4.60" departSpeed="0.00" departDelay="0.40" arrival="76.00" arrivalLane="-1279681436#0_0" arrivalPos="23.22" arrivalSpeed="11.26" duration="21.00" routeLength="130.18" waitingTime="0.00" waitingCount="0" stopTime="0.00" timeLoss="8.39" rerouteNo="1" devices="tripinfo_39 routing_39 emissions_39" vType="thesis_car" speedFactor="0.90" vaporized="">
        <emissions CO_abs="1765.16" CO2_abs="79119.91" HC_abs="9.91" PMx_abs="1.57" NOx_abs="33.94" fuel_abs="25235.74" electricity_abs="0.00"/>
    </tripinfo>
    <tripinfo id="17" depart="24.00" departLane="-745055614#2_0" departPos="4.60" departSpeed="0.00" departDelay="0.20" arrival="79.00" arrivalLane="174398011#3_0" arrivalPos="38.95" arrivalSpeed="7.57" duration="55.00" routeLength="313.84" waitingTime="6.00" waitingCount="1" stopTime="0.00" timeLoss="13.95" rerouteNo="1" devices="tripinfo_17 routing_17 emissions_17" vType="thesis_car" speedFactor="0.94" vaporized="">
        <emissions CO_abs="3565.98" CO2_abs="121242.94" HC_abs="19.00" PMx_abs="2.04" NOx_abs="49.68" fuel_abs="38672.07" electricity_abs="0.00"/>
    </tripinfo>
    <tripinfo id="18" depart="26.00" departLane="-746653786#0_1" departPos="4.60" departSpeed="0.00" departDelay="0.80" arrival="80.00" arrivalLane="27788646#1_1" arrivalPos="10.31" arrivalSpeed="19.42" duration="54.00" routeLength="448.90" waitingTime="9.00" waitingCount="1" stopTime="0.00" timeLoss="25.14" rerouteNo="1" devices="tripinfo_18 routing_18 emissions_18" vType="thesis_car" speedFactor="0.94" vaporized="">
        <emissions CO_abs="5114.22" CO2_abs="225102.41" HC_abs="28.53" PMx_abs="4.47" NOx_abs="94.96" fuel_abs="71797.83" electricity_abs="0.00"/>
    </tripinfo>
    <tripinfo id="33" depart="47.00" departLane="750570767_0" departPos="4.60" departSpeed="0.00" departDelay="0.80" arrival="89.00" arrivalLane="32836569#1_0" arrivalPos="42.32" arrivalSpeed="9.54" duration="42.00" routeLength="683.42" waitingTime="0.00" waitingCount="0" stopTime="0.00" timeLoss="15.52" rerouteNo="1" devices="tripinfo_33 routing_33 emissions_33" vType="thesis_car" speedFactor="1.17" vaporized="">
        <emissions CO_abs="5139.96" CO2_abs="298530.08" HC_abs="30.74" PMx_abs="6.60" NOx_abs="125.39" fuel_abs="95216.63" electricity_abs="0.00"/>
    </tripinfo>
    <tripinfo id="27" depart="38.00" departLane="747951014#0_0" departPos="4.60" departSpeed="0.00" departDelay="0.20" arrival="95.00" arrivalLane="745062638#1_0" arrivalPos="33.30" arrivalSpeed="12.76" duration="57.00" routeLength="302.70" waitingTime="20.00" waitingCount="2" stopTime="0.00" timeLoss="34.06" rerouteNo="1" devices="tripinfo_27 routing_27 emissions_27" vType="thesis_car" speedFactor="0.95" vaporized="">
        <emissions CO_abs="6232.97" CO2_abs="202769.77" HC_abs="33.15" PMx_abs="4.24" NOx_abs="87.73" fuel_abs="64675.42" electricity_abs="0.00"/>
    </tripinfo>
    <tripinfo id="34" depart="48.00" departLane="1279681436#0_0" departPos="4.60" departSpeed="0.00" departDelay="0.40" arrival="96.00" arrivalLane="174398024#1_1" arrivalPos="18.74" arrivalSpeed="7.20" duration="48.00" routeLength="360.65" waitingTime="1.00" waitingCount="1" stopTime="0.00" timeLoss="13.99" rerouteNo="1" devices="tripinfo_34 routing_34 emissions_34" vType="thesis_car" speedFactor="0.99" vaporized="">
        <emissions CO_abs="2823.21" CO2_abs="126430.10" HC_abs="15.81" PMx_abs="2.30" NOx_abs="52.61" fuel_abs="40325.84" electricity_abs="0.00"/>
    </tripinfo>
    <tripinfo id="9" depart="13.00" departLane="23370756_0" departPos="4.60" departSpeed="0.00" departDelay="0.40" arrival="99.00" arrivalLane="-746649485#0_1" arrivalPos="86.80" arrivalSpeed="10.96" duration="86.00" routeLength="413.03" waitingTime="29.00" waitingCount="2" stopTime="0.00" timeLoss="49.12" rerouteNo="1" devices="tripinfo_9 routing_9 emissions_9" vType="thesis_car" speedFactor="0.86" vaporized="">
        <emissions CO_abs="8848.74" CO2_abs="248088.63" HC_abs="46.11" PMx_abs="5.14" NOx_abs="107.09" fuel_abs="79131.16" electricity_abs="0.00"/>
    </tripinfo>
    <tripinfo id="31" depart="44.00" departLane="747951014#0_1" departPos="4.60" departSpeed="0.00" departDelay="0.60" arrival="99.00" arrivalLane="32487759#2_2" arrivalPos="16.69" arrivalSpeed="15.36" duration="55.00" routeLength="958.37" waitingTime="0.00" waitingCount="0" stopTime="0.00" timeLoss="13.79" rerouteNo="1" devices="tripinfo_31 routing_31 emissions_31" vType="thesis_car" speedFactor="1.15" vaporized="">
        <emissions CO_abs="5925.33" CO2_abs="367383.69" HC_abs="35.90" PMx_abs="8.05" NOx_abs="154.76" fuel_abs="117177.33" electricity_abs="0.00"/>
    </tripinfo>
    <tripinfo id="12" depart="17.00" departLane="747951014#0_2" departPos="4.60" departSpeed="0.00" departDelay="0.20" arrival="102.00" arrivalLane="744634701#1_0" arrivalPos="89.90" arrivalSpeed="7.85" duration="85.00" routeLength="680.34" waitingTime="24.00" waitingCount="2" stopTime="0.00" timeLoss="48.17" rerouteNo="1" devices="tripinfo_12 routing_12 emissions_12" vType="thesis_car" speedFactor="1.05" vaporized="">
        <emissions CO_abs="9805.44" CO2_abs="364088.12" HC_abs="53.32" PMx_abs="7.84" NOx_abs="156.18" fuel_abs="116128.59" electricity_abs="0.00"/>
    </tripinfo>
    <tripinfo id="54" depart="76.00" departLane="747951014#0_0" departPos="4.60" departSpeed="0.00" departDelay="0.40" arrival="108.00" arrivalLane="747939433#1_0" arrivalPos="71.35" arrivalSpeed="13.19" duration="32.00" routeLength="204.80" waitingTime="4.00" waitingCount="1" stopTime="0.00" timeLoss="17.93" rerouteNo="1" devices="tripinfo_54 routing_54 emissions_54" vType="thesis_car" speedFactor="1.00" vaporized="">
        <emissions CO_abs="3030.99" CO2_abs="120511.04" HC_abs="16.60" PMx_abs="2.35" NOx_abs="51.11" fuel_abs="38437.95" electricity_abs="0.00"/>
    </tripinfo>
    <tripinfo id="46" depart="65.00" departLane="747951014#0_0" departPos="4.60" departSpeed="0.00" departDelay="0.60" arrival="114.00" arrivalLane="184852741#1_0" arrivalPos="46.06" arrivalSpeed="13.67" duration="49.00" routeLength="314.11" waitingTime="15.00" waitingCount="1" stopTime="0.00" timeLoss="27.45" rerouteNo="1" devices="tripinfo_46 routing_46 emissions_46" vType="thesis_car" speedFactor="1.00" vaporized="">
        <emissions CO_abs="4743.46" CO2_abs="164127.68" HC_abs="25.37" PMx_abs="3.24" NOx_abs="69.50" fuel_abs="52350.18" electricity_abs="0.00"/>
    </tripinfo>
    <tripinfo id="62" depart="87.00" departLane="-747447020#1_0" departPos="4.60" departSpeed="0.00" departDelay="0.20" arrival="114.00" arrivalLane="174398008#1_0" arrivalPos="14.14" arrivalSpeed="7.30" duration="27.00" routeLength="185.06" waitingTime="0.00" waitingCount="0" stopTime="0.00" timeLoss="5.56" rerouteNo="1" devices="tripinfo_62 routing_62 emissions_62" vType="thesis_car" speedFactor="1.02" vaporized="">
        <emissions CO_abs="1355.91" CO2_abs="58261.18" HC_abs="7.51" PMx_abs="0.95" NOx_abs="23.71" fuel_abs="18582.99" electricity_abs="0.00"/>
    </tripinfo>
    <tripinfo id="23" depart="33.00" departLane="-747853027#0_0" departPos="4.60" departSpeed="0.00" departDelay="0.80" arrival="115.00" arrivalLane="744944961_0" arrivalPos="55.92" arrivalSpeed="12.31" duration="82.00" routeLength="419.79" waitingTime="25.00" waitingCount="2" stopTime="0.00" timeLoss="50.21" rerouteNo="1" devices="tripinfo_23 routing_23 emissions_23" vType="thesis_car" speedFactor="0.89" vaporized="">
        <emissions CO_abs="8522.65" CO2_abs="267651.38" HC_abs="45.07" PMx_abs="5.51" NOx_abs="115.23" fuel_abs="85370.34" electricity_abs="0.00"/>
    </tripinfo>
    <tripinfo id="5" depart="7.00" departLane="-174398024#1_1" departPos="4.60" departSpeed="0.00" departDelay="0.00" arrival="117.00" arrivalLane="-96487803#1_0" arrivalPos="46.30" arrivalSpeed="6.43" duration="110.00" routeLength="442.17" waitingTime="37.00" waitingCount="2" stopTime="0.00" timeLoss="53.80" rerouteNo="1" devices="tripinfo_5 routing_5 emissions_5" vType="thesis_car" speedFactor="0.83" vaporized="">
        <emissions CO_abs="10525.33" CO2_abs="269379.79" HC_abs="54.17" PMx_abs="5.43" NOx_abs="115.87" fuel_abs="85922.96" electricity_abs="0.00"/>
    </tripinfo>
    <tripinfo id="3" depart="5.00" departLane="749508470_0" departPos="4.60" departSpeed="0.00" departDelay="0.80" arrival="119.00" arrivalLane="-174398024#1_1" arrivalPos="18.74" arrivalSpeed="8.47" duration="114.00" routeLength="721.45" waitingTime="26.00" waitingCount="2" stopTime="0.00" timeLoss="58.86" rerouteNo="1" devices="tripinfo_3 routing_3 emissions_3" vType="thesis_car" speedFactor="1.08" vaporized="">
        <emissions CO_abs="10473.83" CO2_abs="373678.34" HC_abs="56.40" PMx_abs="7.58" NOx_abs="160.00" fuel_abs="119188.02" electricity_abs="0.00"/>
    </tripinfo>
    <tripinfo id="4" depart="6.00" departLane="1212504575_1" departPos="4.60" departSpeed="0.00" departDelay="0.40" arrival="119.00" arrivalLane="572782867#1_0" arrivalPos="40.39" arrivalSpeed="13.69" duration="113.00" routeLength="671.13" waitingTime="43.00" waitingCount="3" stopTime="0.00" timeLoss="78.37" rerouteNo="1" devices="tripinfo_4 routing_4 emissions_4" vType="thesis_car" speedFactor="1.03" vaporized="">
        <emissions CO_abs="13747.60" CO2_abs="447710.08" HC_abs="73.24" PMx_abs="9.76" NOx_abs="195.21" fuel_abs="142801.19" electricity_abs="0.00"/>
    </tripinfo>
    <tripinfo id="6" depart="9.00" departLane="1279681436#0_0" departPos="4.60" departSpeed="0.00" departDelay="0.60" arrival="122.00" arrivalLane="744634701#1_0" arrivalPos="89.90" arrivalSpeed="7.93" duration="113.00" routeLength="787.09" waitingTime="41.00" waitingCount="1" stopTime="0.00" timeLoss="57.65" rerouteNo="1" devices="tripinfo_6 routing_6 emissions_6" vType="thesis_car" speedFactor="1.05" vaporized="">
        <emissions CO_abs="11123.97" CO2_abs="371281.28" HC_abs="59.38" PMx_abs="7.72" NOx_abs="158.63" fuel_abs="118423.83" electricity_abs="0.00"/>
    </tripinfo>
    <tripinfo id="2" depart="3.00" departLane="746423901#2_1" departPos="4.60" departSpeed="0.00" departDelay="0.20" arrival="123.00" arrivalLane="744645402#1_1" arrivalPos="55.45" arrivalSpeed="26.87" duration="120.00" routeLength="1028.02" waitingTime="43.00" waitingCount="2" stopTime="0.00" timeLoss="67.62" rerouteNo="1" devices="tripinfo_2 routing_2 emissions_2" vType="thesis_car" speedFactor="1.01" vaporized="">
        <emissions CO_abs="13209.19" CO2_abs="489077.94" HC_abs="71.65" PMx_abs="10.40" NOx_abs="205.85" fuel_abs="155995.38" electricity_abs="0.00"/>
    </tripinfo>
    <tripinfo id="19" depart="27.00" departLane="744632165#1_3" departPos="4.60" departSpeed="0.00" departDelay="0.40" arrival="129.00" arrivalLane="32488019#2_1" arrivalPos="17.28" arrivalSpeed="15.34" duration="102.00" routeLength="819.34" waitingTime="9.00" waitingCount="4" stopTime="0.00" timeLoss="52.96" rerouteNo="1" devices="tripinfo_19 routing_19 emissions_19" vType="thesis_car" speedFactor="1.16" vaporized="">
        <emissions CO_abs="9357.55" CO2_abs="413040.51" HC_abs="52.44" PMx_abs="8.47" NOx_abs="176.66" fuel_abs="131741.50" electricity_abs="0.00"/>
    </tripinfo>
    <tripinfo id="32" depart="45.00" departLane="744926195#0_2" departPos="4.60" departSpeed="0.00" departDelay="0.20" arrival="129.00" arrivalLane="32488019#2_0" arrivalPos="17.28" arrivalSpeed="13.59" duration="84.00" routeLength="565.66" waitingTime="13.00" waitingCount="2" stopTime="0.00" timeLoss="35.95" rerouteNo="1" devices="tripinfo_32 routing_32 emissions_32" vType="thesis_car" speedFactor="1.01" vaporized="">
        <emissions CO_abs="6995.70" CO2_abs="273773.57" HC_abs="38.26" PMx_abs="5.39" NOx_abs="116.27" fuel_abs="87322.27" electricity_abs="0.00"/>
    </tripinfo>
    <tripinfo id="8" depart="13.00" departLane="747228982#0_0" departPos="4.60" departSpeed="0.00" departDelay="1.80" arrival="130.00" arrivalLane="744645402#1_0" arrivalPos="55.45" arrivalSpeed="25.57" duration="117.00" routeLength="886.04" waitingTime="44.00" waitingCount="3" stopTime="0.00" timeLoss="77.36" rerouteNo="1" devices="tripinfo_8 routing_8 emissions_8" vType="thesis_car" speedFactor="0.94" vaporized="">
        <emissions CO_abs="13741.69" CO2_abs="477175.17" HC_abs="73.92" PMx_abs="10.36" NOx_abs="203.72" fuel_abs="152199.10" electricity_abs="0.00"/>
    </tripinfo>
    <tripinfo id="22" depart="31.00" departLane="744645404#1_3" departPos="4.60" departSpeed="0.00" departDelay="0.20" arrival="132.00" arrivalLane="744634701#1_0" arrivalPos="89.90" arrivalSpeed="7.83" duration="101.00" routeLength="747.97" waitingTime="26.00" waitingCount="2" stopTime="0.00" timeLoss="52.07" rerouteNo="1" devices="tripinfo_22 routing_22 emissions_22" vType="thesis_car" speedFactor="0.97" vaporized="">
        <emissions CO_abs="9830.52" CO2_abs="366068.84" HC_abs="53.41" PMx_abs="7.50" NOx_abs="156.14" fuel_abs="116760.65" electricity_abs="0.00"/>
    </tripinfo>
    <tripinfo id="57" depart="80.00" departLane="747228982#0_1" departPos="4.60" departSpeed="0.00" departDelay="0.20" arrival="140.00" arrivalLane="-744949908_1" arrivalPos="53.44" arrivalSpeed="12.21" duration="60.00" routeLength="378.03" waitingTime="21.00" waitingCount="1" stopTime="0.00" timeLoss="40.59" rerouteNo="1" devices="tripinfo_57 routing_57 emissions_57" vType="thesis_car" speedFactor="1.14" vaporized="">
        <emissions CO_abs="6864.35" CO2_abs="242109.69" HC_abs="37.02" PMx_abs="5.17" NOx_abs="105.01" fuel_abs="77222.83" electricity_abs="0.00"/>
    </tripinfo>
    <tripinfo id="73" depart="103.00" departLane="96487801#3_0" departPos="4.60" departSpeed="0.00" departDelay="0.80" arrival="142.00" arrivalLane="-184852733#0_0" arrivalPos="59.42" arrivalSpeed="8.06" duration="39.00" routeLength="266.96" waitingTime="0.00" waitingCount="0" stopTime="0.00" timeLoss="7.27" rerouteNo="1" devices="tripinfo_73 routing_73 emissions_73" vType="thesis_car" speedFactor="1.06" vaporized="">
        <emissions CO_abs="1971.47" CO2_abs="85616.82" HC_abs="10.95" PMx_abs="1.43" NOx_abs="35.03" fuel_abs="27308.30" electricity_abs="0.00"/>
    </tripinfo>
    <tripinfo id="38" depart="54.00" departLane="96489258#1_0" departPos="4.60" departSpeed="0.00" departDelay="0.80" arrival="143.00" arrivalLane="744632144#0_0" arrivalPos="5.21" arrivalSpeed="8.72" duration="89.00" routeLength="752.87" waitingTime="13.00" waitingCount="2" stopTime="0.00" timeLoss="45.76" rerouteNo="1" devices="tripinfo_38 routing_38 emissions_38" vType="thesis_car" speedFactor="1.10" vaporized="">
        <emissions CO_abs="8340.32" CO2_abs="366796.00" HC_abs="46.75" PMx_abs="7.67" NOx_abs="157.78" fuel_abs="116991.43" electricity_abs="0.00"/>
    </tripinfo>
    <tripinfo id="49" depart="69.00" departLane="744632165#1_3" departPos="4.60" departSpeed="0.00" departDelay="0.40" arrival="144.00" arrivalLane="-746423905#1_1" arrivalPos="45.15" arrivalSpeed="5.86" duration="75.00" routeLength="540.86" waitingTime="13.00" waitingCount="1" stopTime="0.00" timeLoss="29.52" rerouteNo="1" devices="tripinfo_49 routing_49 emissions_49" vType="thesis_car" speedFactor="0.85" vaporized="">
        <emissions CO_abs="6090.72" CO2_abs="240707.37" HC_abs="33.36" PMx_abs="4.77" NOx_abs="101.91" fuel_abs="76775.51" electricity_abs="0.00"/>
    </tripinfo>
    <tripinfo id="29" depart="41.00" departLane="182331870#0_0" departPos="4.60" departSpeed="0.00" departDelay="0.40" arrival="149.00" arrivalLane="184852743#0_1" arrivalPos="24.94" arrivalSpeed="9.80" duration="108.00" routeLength="395.30" waitingTime="52.00" waitingCount="2" stopTime="0.00" timeLoss="69.22" rerouteNo="1" devices="tripinfo_29 routing_29 emissions_29" vType="thesis_car" speedFactor="0.93" vaporized="">
        <emissions CO_abs="12329.29" CO2_abs="306742.78" HC_abs="63.25" PMx_abs="6.49" NOx_abs="133.26" fuel_abs="97840.40" electricity_abs="0.00"/>
    </tripinfo>
    <tripinfo id="86" depart="121.00" departLane="81548613#0_1" departPos="4.60" departSpeed="0.00" departDelay="0.60" arrival="149.00" arrivalLane="744634701#1_0" arrivalPos="89.90" arrivalSpeed="7.24" duration="28.00" routeLength="199.11" waitingTime="0.00" waitingCount="0" stopTime="0.00" timeLoss="4.83" rerouteNo="1" devices="tripinfo_86 routing_86 emissions_86" vType="thesis_car" speedFactor="1.00" vaporized="">
        <emissions CO_abs="1631.18" CO2_abs="74895.05" HC_abs="9.17" PMx_abs="1.33" NOx_abs="31.15" fuel_abs="23888.34" electricity_abs="0.00"/>
    </tripinfo>
    <tripinfo id="20" depart="28.00" departLane="23370756_0" departPos="4.60" departSpeed="0.00" departDelay="0.00" arrival="150.00" arrivalLane="-96489258#1_1" arrivalPos="28.61" arrivalSpeed="8.47" duration="122.00" routeLength="570.05" waitingTime="36.00" waitingCount="4" stopTime="0.00" timeLoss="78.56" rerouteNo="1" devices="tripinfo_20 routing_20 emissions_20" vType="thesis_car" speedFactor="1.02" vaporized="">
        <emissions CO_abs="12731.78" CO2_abs="378311.62" HC_abs="66.87" PMx_abs="7.90" NOx_abs="163.91" fuel_abs="120666.93" electricity_abs="0.00"/>
    </tripinfo>
    <tripinfo id="21" depart="30.00" departLane="1279681436#0_0" departPos="4.60" departSpeed="0.00" departDelay="0.60" arrival="150.00" arrivalLane="747853030_1" arrivalPos="16.63" arrivalSpeed="13.43" duration="120.00" routeLength="683.82" waitingTime="47.00" waitingCount="2" stopTime="0.00" timeLoss="71.52" rerouteNo="1" devices="tripinfo_21 routing_21 emissions_21" vType="thesis_car" speedFactor="1.01" vaporized="">
        <emissions CO_abs="12694.49" CO2_abs="398450.03" HC_abs="67.00" PMx_abs="8.28" NOx_abs="171.36" fuel_abs="127089.95" electricity_abs="0.00"/>
    </tripinfo>
    <tripinfo id="26" depart="37.00" departLane="51355540#1_0" departPos="4.60" departSpeed="0.00" departDelay="0.60" arrival="150.00" arrivalLane="744645402#1_1" arrivalPos="55.45" arrivalSpeed="17.79" duration="113.00" routeLength="568.64" waitingTime="50.00" waitingCount="2" stopTime="0.00" timeLoss="71.90" rerouteNo="1" devices="tripinfo_26 routing_26 emissions_26" vType="thesis_car" speedFactor="0.92" vaporized="">
        <emissions CO_abs="13293.97" CO2_abs="401650.07" HC_abs="70.01" PMx_abs="8.60" NOx_abs="174.68" fuel_abs="128110.67" electricity_abs="0.00"/>
    </tripinfo>
    <tripinfo id="53" depart="75.00" departLane="174398024#2_0" departPos="4.60" departSpeed="0.00" departDelay="0.80" arrival="154.00" arrivalLane="-1279681436#0_0" arrivalPos="23.22" arrivalSpeed="11.59" duration="79.00" routeLength="489.27" waitingTime="26.00" waitingCount="2" stopTime="0.00" timeLoss="44.59" rerouteNo="1" devices="tripinfo_53 routing_53 emissions_53" vType="thesis_car" speedFactor="1.10" vaporized="">
        <emissions CO_abs="8049.08" CO2_abs="265359.70" HC_abs="42.60" PMx_abs="5.31" NOx_abs="112.27" fuel_abs="84639.33" electricity_abs="0.00"/>
    </tripinfo>
    <tripinfo id="60" depart="84.00" departLane="-96487803#1_0" departPos="4.60" departSpeed="0.00" departDelay="0.00" arrival="154.00" arrivalLane="32487759#2_2" arrivalPos="16.69" arrivalSpeed="13.80" duration="70.00" routeLength="653.62" waitingTime="0.00" waitingCount="0" stopTime="0.00" timeLoss="22.93" rerouteNo="1" devices="tripinfo_60 routing_60 emissions_60" vType="thesis_car" speedFactor="1.08" vaporized="">
        <emissions CO_abs="4738.45" CO2_abs="243991.93" HC_abs="27.12" PMx_abs="4.55" NOx_abs="101.02" fuel_abs="77822.54" electricity_abs="0.00"/>
    </tripinfo>
    <tripinfo id="25" depart="35.00" departLane="96487803#1_0" departPos="4.60" departSpeed="0.00" departDelay="0.00" arrival="155.00" arrivalLane="744645397#1_2" arrivalPos="154.64" arrivalSpeed="23.05" duration="120.00" routeLength="810.66" waitingTime="27.00" waitingCount="4" stopTime="0.00" timeLoss="70.55" rerouteNo="1" devices="tripinfo_25 routing_25 emissions_25" vType="thesis_car" speedFactor="0.87" vaporized="">
        <emissions CO_abs="12789.42" CO2_abs="475264.46" HC_abs="69.49" PMx_abs="9.97" NOx_abs="204.35" fuel_abs="151589.22" electricity_abs="0.00"/>
    </tripinfo>
    <tripinfo id="52" depart="73.00" departLane="747951014#0_2" departPos="4.60" departSpeed="0.00" departDelay="0.20" arrival="155.00" arrivalLane="745365881_0" arrivalPos="47.00" arrivalSpeed="13.12" duration="82.00" routeLength="644.04" waitingTime="30.00" waitingCount="2" stopTime="0.00" timeLoss="52.03" rerouteNo="1" devices="tripinfo_52 routing_52 emissions_52" vType="thesis_car" speedFactor="1.02" vaporized="">
        <emissions CO_abs="9815.98" CO2_abs="347096.16" HC_abs="52.95" PMx_abs="7.53" NOx_abs="148.30" fuel_abs="110709.17" electricity_abs="0.00"/>
    </tripinfo>
    <tripinfo id="43" depart="61.00" departLane="-174398011#1_0" departPos="4.60" departSpeed="0.00" departDelay="0.80" arrival="156.00" arrivalLane="744926195#2_0" arrivalPos="19.04" arrivalSpeed="13.30" duration="95.00" routeLength="499.71" waitingTime="36.00" waitingCount="2" stopTime="0.00" timeLoss="58.15" rerouteNo="1" devices="tripinfo_43 routing_43 emissions_43" vType="thesis_car" speedFactor="1.04" vaporized="">
        <emissions CO_abs="10305.13" CO2_abs="306823.18" HC_abs="54.07" PMx_abs="6.45" NOx_abs="132.40" fuel_abs="97864.84" electricity_abs="0.00"/>
    </tripinfo>
    <tripinfo id="11" depart="16.00" departLane="-746423901#2_0" departPos="4.60" departSpeed="0.00" departDelay="0.60" arrival="159.00" arrivalLane="-184852733#0_0" arrivalPos="59.42" arrivalSpeed="7.25" duration="143.00" routeLength="908.52" waitingTime="54.00" waitingCount="2" stopTime="0.00" timeLoss="83.33" rerouteNo="1" devices="tripinfo_11 routing_11 emissions_11" vType="thesis_car" speedFactor="1.03" vaporized="">
        <emissions CO_abs="15215.55" CO2_abs="495471.88" HC_abs="80.90" PMx_abs="10.38" NOx_abs="212.64" fuel_abs="158035.75" electricity_abs="0.00"/>
    </tripinfo>
    <tripinfo id="81" depart="114.00" departLane="23370756_1" departPos="4.60" departSpeed="0.00" departDelay="0.60" arrival="159.00" arrivalLane="96487801#3_0" arrivalPos="11.14" arrivalSpeed="7.54" duration="45.00" routeLength="216.97" waitingTime="7.00" waitingCount="2" stopTime="0.00" timeLoss="22.00" rerouteNo="1" devices="tripinfo_81 routing_81 emissions_81" vType="thesis_car" speedFactor="1.00" vaporized="">
        <emissions CO_abs="4305.80" CO2_abs="134951.54" HC_abs="22.75" PMx_abs="2.65" NOx_abs="57.65" fuel_abs="43044.40" electricity_abs="0.00"/>
    </tripinfo>
    <tripinfo id="72" depart="101.00" departLane="745542369#1_0" departPos="4.60" departSpeed="0.00" departDelay="0.20" arrival="160.00" arrivalLane="744645402#1_0" arrivalPos="55.45" arrivalSpeed="16.48" duration="59.00" routeLength="654.58" waitingTime="6.00" waitingCount="1" stopTime="0.00" timeLoss="33.75" rerouteNo="1" devices="tripinfo_72 routing_72 emissions_72" vType="thesis_car" speedFactor="0.94" vaporized="">
        <emissions CO_abs="6573.02" CO2_abs="326873.79" HC_abs="37.84" PMx_abs="7.00" NOx_abs="139.55" fuel_abs="104257.47" electricity_abs="0.00"/>
    </tripinfo>
    <tripinfo id="91" depart="128.00" departLane="1279681436#0_0" departPos="4.60" departSpeed="0.00" departDelay="0.60" arrival="160.00" arrivalLane="-744949906#0_1" arrivalPos="55.96" arrivalSpeed="11.99" duration="32.00" routeLength="315.85" waitingTime="0.00" waitingCount="0" stopTime="0.00" timeLoss="5.36" rerouteNo="1" devices="tripinfo_91 routing_91 emissions_91" vType="thesis_car" speedFactor="0.89" vaporized="">
        <emissions CO_abs="1273.65" CO2_abs="85107.32" HC_abs="7.69" PMx_abs="1.24" NOx_abs="32.95" fuel_abs="27145.61" electricity_abs="0.00"/>
    </tripinfo>