<?xml version="1.0" encoding="UTF-8"?>

<!-- generated on 2026-01-13T01:57:22.631213+08:00 by Eclipse SUMO GUI 1.25.0
<sumoConfiguration xmlns:xsi="http://www.w3.org/2001/XMLSchema-instance" xsi:noNamespaceSchemaLocation="http://sumo.dlr.de/xsd/sumoConfiguration.xsd">

    <input>
        <net-file value="final_map.net.xml"/>
        <route-files value="trips_low.xml"/>
        <additional-files value="osm.poly.xml.gz,output.add.xml,vtypes.add.xml"/>
    </input>

    <output>
        <summary-output value="data\data_selfish_low_summary.xml"/>
        <tripinfo-output value="data\data_selfish_low_tripinfo.xml"/>
        <statistic-output value="data\data_selfish_low_stats.xml"/>
    </output>

    <processing>
        <ignore-route-errors value="true"/>
        <time-to-teleport value="300"/>
        <tls.actuated.jam-threshold value="30"/>
    </processing>

    <routing>
        <device.rerouting.adaptation-steps value="18"/>
        <device.rerouting.adaptation-interval value="10"/>
    </routing>

    <report>
        <verbose value="true"/>
        <duration-log.statistics value="true"/>
        <no-step-log value="true"/>
    </report>

    <emissions>
        <device.emissions.probability value="1.0"/>
    </emissions>

    <gui_only>
        <gui-settings-file value="osm.view.xml"/>
    </gui_only>

</sumoConfiguration>
-->

<tripinfos xmlns:xsi="http://www.w3.org/2001/XMLSchema-instance" xsi:noNamespaceSchemaLocation="http://sumo.dlr.de/xsd/tripinfo_file.xsd">
    <tripinfo id="15" depart="45.00" departLane="744999974#1_1" departPos="4.60" departSpeed="0.00" departDelay="0.00" arrival="52.00" arrivalLane="-1279681436#0_0" arrivalPos="23.22" arrivalSpeed="12.47" duration="7.00" routeLength="50.59" waitingTime="0.00" waitingCount="0" stopTime="0.00" timeLoss="2.90" rerouteNo="0" devices="tripinfo_15 routing_15 emissions_15" vType="thesis_car" speedFactor="0.93" vaporized="">
        <emissions CO_abs="858.52" CO2_abs="39205.15" HC_abs="4.84" PMx_abs="0.79" NOx_abs="16.85" fuel_abs="12504.68" electricity_abs="0.00"/>
    </tripinfo>
    <tripinfo id="0" depart="0.00" departLane="744645397#1_1" departPos="4.60" departSpeed="0.00" departDelay="0.00" arrival="57.00" arrivalLane="-1279681436#0_0" arrivalPos="23.22" arrivalSpeed="14.39" duration="57.00" routeLength="611.51" waitingTime="12.00" waitingCount="1" stopTime="0.00" timeLoss="27.60" rerouteNo="1" devices="tripinfo_0 routing_0 emissions_0" vType="thesis_car" speedFactor="1.06" vaporized="">
        <emissions CO_abs="6350.94" CO2_abs="284401.96" HC_abs="35.73" PMx_abs="6.06" NOx_abs="120.35" fuel_abs="90711.43" electricity_abs="0.00"/>
    </tripinfo>
    <tripinfo id="7" depart="21.00" departLane="747228982#0_0" departPos="4.60" departSpeed="0.00" departDelay="0.00" arrival="66.00" arrivalLane="-1279681436#0_0" arrivalPos="23.22" arrivalSpeed="11.50" duration="45.00" routeLength="472.84" waitingTime="0.00" waitingCount="0" stopTime="0.00" timeLoss="8.50" rerouteNo="1" devices="tripinfo_7 routing_7 emissions_7" vType="thesis_car" speedFactor="0.89" vaporized="">
        <emissions CO_abs="2482.10" CO2_abs="161275.34" HC_abs="15.08" PMx_abs="2.89" NOx_abs="66.12" fuel_abs="51439.39" electricity_abs="0.00"/>
    </tripinfo>
    <tripinfo id="1" depart="3.00" departLane="1279681436#0_0" departPos="4.60" departSpeed="0.00" departDelay="0.00" arrival="71.00" arrivalLane="174398008#1_0" arrivalPos="14.14" arrivalSpeed="7.17" duration="68.00" routeLength="700.71" waitingTime="0.00" waitingCount="0" stopTime="0.00" timeLoss="10.39" rerouteNo="1" devices="tripinfo_1 routing_1 emissions_1" vType="thesis_car" speedFactor="0.94" vaporized="">
        <emissions CO_abs="2980.14" CO2_abs="200317.07" HC_abs="18.12" PMx_abs="3.22" NOx_abs="79.45" fuel_abs="63892.26" electricity_abs="0.00"/>
    </tripinfo>
    <tripinfo id="2" depart="6.00" departLane="746423901#2_1" departPos="4.60" departSpeed="0.00" departDelay="0.00" arrival="75.00" arrivalLane="744645402#1_1" arrivalPos="55.45" arrivalSpeed="26.96" duration="69.00" routeLength="1028.02" waitingTime="0.00" waitingCount="0" stopTime="0.00" timeLoss="15.21" rerouteNo="1" devices="tripinfo_2 routing_2 emissions_2" vType="thesis_car" speedFactor="1.01" vaporized="">
        <emissions CO_abs="5559.32" CO2_abs="372162.94" HC_abs="34.24" PMx_abs="7.60" NOx_abs="153.41" fuel_abs="118702.02" electricity_abs="0.00"/>
    </tripinfo>
    <tripinfo id="13" depart="39.00" departLane="747228982#0_0" departPos="4.60" departSpeed="0.00" departDelay="0.00" arrival="80.00" arrivalLane="744944961_0" arrivalPos="55.92" arrivalSpeed="14.76" duration="41.00" routeLength="216.26" waitingTime="11.00" waitingCount="2" stopTime="0.00" timeLoss="29.58" rerouteNo="1" devices="tripinfo_13 routing_13 emissions_13" vType="thesis_car" speedFactor="1.12" vaporized="">
        <emissions CO_abs="4793.07" CO2_abs="163876.48" HC_abs="25.68" PMx_abs="3.43" NOx_abs="70.87" fuel_abs="52269.86" electricity_abs="0.00"/>
    </tripinfo>
    <tripinfo id="10" depart="30.00" departLane="750570767_2" departPos="4.60" departSpeed="0.00" departDelay="0.00" arrival="83.00" arrivalLane="32487759#2_2" arrivalPos="16.69" arrivalSpeed="14.94" duration="53.00" routeLength="412.59" waitingTime="13.00" waitingCount="1" stopTime="0.00" timeLoss="28.56" rerouteNo="1" devices="tripinfo_10 routing_10 emissions_10" vType="thesis_car" speedFactor="1.09" vaporized="">
        <emissions CO_abs="4958.16" CO2_abs="206420.85" HC_abs="27.26" PMx_abs="4.03" NOx_abs="86.59" fuel_abs="65839.45" electricity_abs="0.00"/>
    </tripinfo>
    <tripinfo id="28" depart="84.00" departLane="1279681436#0_0" departPos="4.60" departSpeed="0.00" departDelay="0.00" arrival="93.00" arrivalLane="-1279681436#0_0" arrivalPos="23.22" arrivalSpeed="10.46" duration="9.00" routeLength="46.51" waitingTime="0.00" waitingCount="0" stopTime="0.00" timeLoss="5.08" rerouteNo="0" devices="tripinfo_28 routing_28 emissions_28" vType="thesis_car" speedFactor="1.13" vaporized="">
        <emissions CO_abs="900.76" CO2_abs="35812.54" HC_abs="4.95" PMx_abs="0.73" NOx_abs="15.54" fuel_abs="11422.64" electricity_abs="0.00"/>
    </tripinfo>
    <tripinfo id="12" depart="36.00" departLane="747951014#0_2" departPos="4.60" departSpeed="0.00" departDelay="0.00" arrival="102.00" arrivalLane="744634701#1_0" arrivalPos="89.90" arrivalSpeed="7.51" duration="66.00" routeLength="680.34" waitingTime="6.00" waitingCount="2" stopTime="0.00" timeLoss="29.05" rerouteNo="1" devices="tripinfo_12 routing_12 emissions_12" vType="thesis_car" speedFactor="1.05" vaporized="">
        <emissions CO_abs="6305.68" CO2_abs="301693.50" HC_abs="35.99" PMx_abs="6.38" NOx_abs="128.07" fuel_abs="96226.40" electricity_abs="0.00"/>
    </tripinfo>
    <tripinfo id="17" depart="51.00" departLane="-745055614#2_0" departPos="4.60" departSpeed="0.00" departDelay="0.00" arrival="103.00" arrivalLane="174398011#3_0" arrivalPos="38.95" arrivalSpeed="7.57" duration="52.00" routeLength="313.84" waitingTime="3.00" waitingCount="1" stopTime="0.00" timeLoss="11.78" rerouteNo="1" devices="tripinfo_17 routing_17 emissions_17" vType="thesis_car" speedFactor="0.94" vaporized="">
        <emissions CO_abs="3316.62" CO2_abs="115909.39" HC_abs="17.75" PMx_abs="1.97" NOx_abs="47.61" fuel_abs="36970.78" electricity_abs="0.00"/>
    </tripinfo>
    <tripinfo id="9" depart="27.00" departLane="23370756_0" departPos="4.60" departSpeed="0.00" departDelay="0.00" arrival="104.00" arrivalLane="-746649485#0_1" arrivalPos="86.80" arrivalSpeed="11.60" duration="77.00" routeLength="413.03" waitingTime="19.00" waitingCount="2" stopTime="0.00" timeLoss="40.11" rerouteNo="1" devices="tripinfo_9 routing_9 emissions_9" vType="thesis_car" speedFactor="0.86" vaporized="">
        <emissions CO_abs="7199.11" CO2_abs="226639.35" HC_abs="38.10" PMx_abs="4.61" NOx_abs="97.37" fuel_abs="72289.15" electricity_abs="0.00"/>
    </tripinfo>
    <tripinfo id="27" depart="81.00" departLane="747951014#0_0" departPos="4.60" departSpeed="0.00" departDelay="0.00" arrival="113.00" arrivalLane="745062638#1_0" arrivalPos="33.30" arrivalSpeed="12.36" duration="32.00" routeLength="302.70" waitingTime="0.00" waitingCount="0" stopTime="0.00" timeLoss="9.22" rerouteNo="1" devices="tripinfo_27 routing_27 emissions_27" vType="thesis_car" speedFactor="0.95" vaporized="">
        <emissions CO_abs="2181.99" CO2_abs="130041.75" HC_abs="13.01" PMx_abs="2.44" NOx_abs="54.41" fuel_abs="41477.27" electricity_abs="0.00"/>
    </tripinfo>
    <tripinfo id="3" depart="9.00" departLane="749508470_0" departPos="4.60" departSpeed="0.00" departDelay="0.00" arrival="114.00" arrivalLane="-174398024#1_1" arrivalPos="18.74" arrivalSpeed="7.79" duration="105.00" routeLength="721.45" waitingTime="22.00" waitingCount="2" stopTime="0.00" timeLoss="50.00" rerouteNo="1" devices="tripinfo_3 routing_3 emissions_3" vType="thesis_car" speedFactor="1.08" vaporized="">
        <emissions CO_abs="9039.04" CO2_abs="338967.65" HC_abs="49.16" PMx_abs="6.81" NOx_abs="144.82" fuel_abs="108116.53" electricity_abs="0.00"/>
    </tripinfo>
    <tripinfo id="18" depart="54.00" departLane="-746653786#0_1" departPos="4.60" departSpeed="0.00" departDelay="0.00" arrival="115.00" arrivalLane="27788646#1_1" arrivalPos="10.31" arrivalSpeed="19.79" duration="61.00" routeLength="448.90" waitingTime="18.00" waitingCount="1" stopTime="0.00" timeLoss="31.49" rerouteNo="1" devices="tripinfo_18 routing_18 emissions_18" vType="thesis_car" speedFactor="0.94" vaporized="">
        <emissions CO_abs="6333.39" CO2_abs="242795.44" HC_abs="34.49" PMx_abs="4.95" NOx_abs="102.77" fuel_abs="77441.52" electricity_abs="0.00"/>
    </tripinfo>
    <tripinfo id="30" depart="90.00" departLane="1212501346_0" departPos="4.60" departSpeed="0.00" departDelay="0.00" arrival="116.00" arrivalLane="747939432_0" arrivalPos="37.82" arrivalSpeed="26.35" duration="26.00" routeLength="221.82" waitingTime="7.00" waitingCount="1" stopTime="0.00" timeLoss="19.12" rerouteNo="1" devices="tripinfo_30 routing_30 emissions_30" vType="thesis_car" speedFactor="1.18" vaporized="">
        <emissions CO_abs="3884.84" CO2_abs="168995.38" HC_abs="21.78" PMx_abs="3.75" NOx_abs="73.20" fuel_abs="53901.78" electricity_abs="0.00"/>
    </tripinfo>
    <tripinfo id="6" depart="18.00" departLane="1279681436#0_0" departPos="4.60" departSpeed="0.00" departDelay="0.00" arrival="122.00" arrivalLane="744634701#1_0" arrivalPos="89.90" arrivalSpeed="8.63" duration="104.00" routeLength="787.09" waitingTime="25.00" waitingCount="2" stopTime="0.00" timeLoss="48.83" rerouteNo="1" devices="tripinfo_6 routing_6 emissions_6" vType="thesis_car" speedFactor="1.05" vaporized="">
        <emissions CO_abs="8931.90" CO2_abs="341647.84" HC_abs="48.60" PMx_abs="6.77" NOx_abs="144.00" fuel_abs="108971.48" electricity_abs="0.00"/>
    </tripinfo>
    <tripinfo id="8" depart="24.00" departLane="747228982#0_0" departPos="4.60" departSpeed="0.00" departDelay="0.00" arrival="122.00" arrivalLane="744645402#1_1" arrivalPos="55.45" arrivalSpeed="24.94" duration="98.00" routeLength="886.04" waitingTime="31.00" waitingCount="1" stopTime="0.00" timeLoss="57.82" rerouteNo="1" devices="tripinfo_8 routing_8 emissions_8" vType="thesis_car" speedFactor="0.94" vaporized="">
        <emissions CO_abs="11457.52" CO2_abs="444874.86" HC_abs="62.84" PMx_abs="9.63" NOx_abs="189.14" fuel_abs="141895.88" electricity_abs="0.00"/>
    </tripinfo>
    <tripinfo id="4" depart="12.00" departLane="1212504575_1" departPos="4.60" departSpeed="0.00" departDelay="0.00" arrival="124.00" arrivalLane="572782867#1_0" arrivalPos="40.39" arrivalSpeed="13.59" duration="112.00" routeLength="671.13" waitingTime="39.00" waitingCount="4" stopTime="0.00" timeLoss="77.26" rerouteNo="1" devices="tripinfo_4 routing_4 emissions_4" vType="thesis_car" speedFactor="1.03" vaporized="">
        <emissions CO_abs="13551.42" CO2_abs="446690.29" HC_abs="72.37" PMx_abs="9.79" NOx_abs="195.26" fuel_abs="142475.75" electricity_abs="0.00"/>
    </tripinfo>
    <tripinfo id="39" depart="117.00" departLane="-746423901#2_1" departPos="4.60" departSpeed="0.00" departDelay="0.00" arrival="138.00" arrivalLane="-1279681436#0_0" arrivalPos="23.22" arrivalSpeed="11.42" duration="21.00" routeLength="130.18" waitingTime="0.00" waitingCount="0" stopTime="0.00" timeLoss="8.19" rerouteNo="1" devices="tripinfo_39 routing_39 emissions_39" vType="thesis_car" speedFactor="0.90" vaporized="">
        <emissions CO_abs="1824.69" CO2_abs="79303.25" HC_abs="10.18" PMx_abs="1.59" NOx_abs="34.12" fuel_abs="25294.23" electricity_abs="0.00"/>
    </tripinfo>
    <tripinfo id="33" depart="99.00" departLane="750570767_0" departPos="4.60" departSpeed="0.00" departDelay="0.00" arrival="141.00" arrivalLane="32836569#1_0" arrivalPos="42.32" arrivalSpeed="8.87" duration="42.00" routeLength="683.42" waitingTime="0.00" waitingCount="0" stopTime="0.00" timeLoss="15.49" rerouteNo="1" devices="tripinfo_33 routing_33 emissions_33" vType="thesis_car" speedFactor="1.17" vaporized="">
        <emissions CO_abs="4926.62" CO2_abs="287302.70" HC_abs="29.49" PMx_abs="6.37" NOx_abs="121.70" fuel_abs="91635.53" electricity_abs="0.00"/>
    </tripinfo>
    <tripinfo id="34" depart="102.00" departLane="1279681436#0_0" departPos="4.60" departSpeed="0.00" departDelay="0.00" arrival="142.00" arrivalLane="174398024#1_1" arrivalPos="18.74" arrivalSpeed="8.03" duration="40.00" routeLength="360.65" waitingTime="0.00" waitingCount="0" stopTime="0.00" timeLoss="5.71" rerouteNo="1" devices="tripinfo_34 routing_34 emissions_34" vType="thesis_car" speedFactor="0.99" vaporized="">
        <emissions CO_abs="1875.40" CO2_abs="106319.98" HC_abs="10.89" PMx_abs="1.76" NOx_abs="42.82" fuel_abs="33911.45" electricity_abs="0.00"/>
    </tripinfo>
    <tripinfo id="23" depart="69.00" departLane="-747853027#0_0" departPos="4.60" departSpeed="0.00" departDelay="0.00" arrival="146.00" arrivalLane="744944961_0" arrivalPos="55.92" arrivalSpeed="12.09" duration="77.00" routeLength="419.79" waitingTime="26.00" waitingCount="2" stopTime="0.00" timeLoss="44.87" rerouteNo="1" devices="tripinfo_23 routing_23 emissions_23" vType="thesis_car" speedFactor="0.89" vaporized="">
        <emissions CO_abs="8146.20" CO2_abs="256458.59" HC_abs="43.12" PMx_abs="5.32" NOx_abs="110.62" fuel_abs="81800.23" electricity_abs="0.00"/>
    </tripinfo>
    <tripinfo id="11" depart="33.00" departLane="-746423901#2_0" departPos="4.60" departSpeed="0.00" departDelay="0.00" arrival="147.00" arrivalLane="-184852733#0_0" arrivalPos="59.42" arrivalSpeed="7.93" duration="114.00" routeLength="908.52" waitingTime="20.00" waitingCount="3" stopTime="0.00" timeLoss="54.41" rerouteNo="1" devices="tripinfo_11 routing_11 emissions_11" vType="thesis_car" speedFactor="1.03" vaporized="">
        <emissions CO_abs="10341.63" CO2_abs="419552.75" HC_abs="56.97" PMx_abs="8.56" NOx_abs="178.59" fuel_abs="133819.23" electricity_abs="0.00"/>
    </tripinfo>
    <tripinfo id="26" depart="78.00" departLane="51355540#1_0" departPos="4.60" departSpeed="0.00" departDelay="0.00" arrival="147.00" arrivalLane="744645402#1_1" arrivalPos="55.45" arrivalSpeed="18.73" duration="69.00" routeLength="568.64" waitingTime="4.00" waitingCount="2" stopTime="0.00" timeLoss="28.00" rerouteNo="1" devices="tripinfo_26 routing_26 emissions_26" vType="thesis_car" speedFactor="0.92" vaporized="">
        <emissions CO_abs="5906.57" CO2_abs="281856.18" HC_abs="33.55" PMx_abs="5.60" NOx_abs="119.95" fuel_abs="89899.41" electricity_abs="0.00"/>
    </tripinfo>
    <tripinfo id="31" depart="93.00" departLane="747951014#0_1" departPos="4.60" departSpeed="0.00" departDelay="0.00" arrival="148.00" arrivalLane="32487759#2_2" arrivalPos="16.69" arrivalSpeed="15.76" duration="55.00" routeLength="958.37" waitingTime="0.00" waitingCount="0" stopTime="0.00" timeLoss="13.98" rerouteNo="1" devices="tripinfo_31 routing_31 emissions_31" vType="thesis_car" speedFactor="1.15" vaporized="">
        <emissions CO_abs="5761.96" CO2_abs="359535.92" HC_abs="34.90" PMx_abs="7.84" NOx_abs="152.13" fuel_abs="114674.21" electricity_abs="0.00"/>
    </tripinfo>
    <tripinfo id="5" depart="15.00" departLane="-174398024#1_1" departPos="4.60" departSpeed="0.00" departDelay="0.00" arrival="149.00" arrivalLane="-96487803#1_0" arrivalPos="46.30" arrivalSpeed="6.08" duration="134.00" routeLength="442.17" waitingTime="56.00" waitingCount="3" stopTime="0.00" timeLoss="78.45" rerouteNo="1" devices="tripinfo_5 routing_5 emissions_5" vType="thesis_car" speedFactor="0.83" vaporized="">
        <emissions CO_abs="13932.63" CO2_abs="324568.46" HC_abs="71.00" PMx_abs="6.87" NOx_abs="141.53" fuel_abs="103526.70" electricity_abs="0.00"/>
    </tripinfo>
    <tripinfo id="21" depart="63.00" departLane="1279681436#0_0" departPos="4.60" departSpeed="0.00" departDelay="0.00" arrival="153.00" arrivalLane="747853030_1" arrivalPos="16.63" arrivalSpeed="13.21" duration="90.00" routeLength="683.82" waitingTime="18.00" waitingCount="2" stopTime="0.00" timeLoss="42.38" rerouteNo="1" devices="tripinfo_21 routing_21 emissions_21" vType="thesis_car" speedFactor="1.01" vaporized="">
        <emissions CO_abs="7952.48" CO2_abs="323728.39" HC_abs="43.72" PMx_abs="6.38" NOx_abs="136.84" fuel_abs="103255.59" electricity_abs="0.00"/>
    </tripinfo>
    <tripinfo id="14" depart="42.00" departLane="747939433#1_1" departPos="4.60" departSpeed="0.00" departDelay="0.00" arrival="157.00" arrivalLane="744634701#1_0" arrivalPos="89.90" arrivalSpeed="7.59" duration="115.00" routeLength="899.89" waitingTime="25.00" waitingCount="2" stopTime="0.00" timeLoss="56.36" rerouteNo="1" devices="tripinfo_14 routing_14 emissions_14" vType="thesis_car" speedFactor="0.99" vaporized="">
        <emissions CO_abs="11249.52" CO2_abs="459416.49" HC_abs="62.07" PMx_abs="9.45" NOx_abs="196.31" fuel_abs="146533.90" electricity_abs="0.00"/>
    </tripinfo>
    <tripinfo id="32" depart="96.00" departLane="744926195#0_2" departPos="4.60" departSpeed="0.00" departDelay="0.00" arrival="165.00" arrivalLane="32488019#2_0" arrivalPos="17.28" arrivalSpeed="13.06" duration="69.00" routeLength="565.66" waitingTime="0.00" waitingCount="0" stopTime="0.00" timeLoss="22.16" rerouteNo="1" devices="tripinfo_32 routing_32 emissions_32" vType="thesis_car" speedFactor="1.01" vaporized="">
        <emissions CO_abs="4559.93" CO2_abs="235420.80" HC_abs="26.26" PMx_abs="4.39" NOx_abs="98.64" fuel_abs="75088.68" electricity_abs="0.00"/>
    </tripinfo>
    <tripinfo id="46" depart="138.00" departLane="747951014#0_0" departPos="4.60" departSpeed="0.00" departDelay="0.00" arrival="169.00" arrivalLane="184852741#1_0" arrivalPos="46.06" arrivalSpeed="13.64" duration="31.00" routeLength="314.11" waitingTime="0.00" waitingCount="0" stopTime="0.00" timeLoss="9.67" rerouteNo="1" devices="tripinfo_46 routing_46 emissions_46" vType="thesis_car" speedFactor="1.00" vaporized="">
        <emissions CO_abs="1912.35" CO2_abs="113929.13" HC_abs="11.36" PMx_abs="2.15" NOx_abs="47.58" fuel_abs="36338.09" electricity_abs="0.00"/>
    </tripinfo>
    <tripinfo id="19" depart="57.00" departLane="744632165#1_3" departPos="4.60" departSpeed="0.00" departDelay="0.00" arrival="170.00" arrivalLane="32488019#2_0" arrivalPos="17.28" arrivalSpeed="15.78" duration="113.00" routeLength="814.94" waitingTime="27.00" waitingCount="2" stopTime="0.00" timeLoss="63.60" rerouteNo="1" devices="tripinfo_19 routing_19 emissions_19" vType="thesis_car" speedFactor="1.16" vaporized="">
        <emissions CO_abs="10966.02" CO2_abs="425906.80" HC_abs="60.03" PMx_abs="8.77" NOx_abs="181.81" fuel_abs="135846.11" electricity_abs="0.00"/>
    </tripinfo>
    <tripinfo id="20" depart="60.00" departLane="23370756_0" departPos="4.60" departSpeed="0.00" departDelay="0.00" arrival="171.00" arrivalLane="-96489258#1_1" arrivalPos="28.61" arrivalSpeed="8.33" duration="111.00" routeLength="570.05" waitingTime="37.00" waitingCount="3" stopTime="0.00" timeLoss="67.58" rerouteNo="1" devices="tripinfo_20 routing_20 emissions_20" vType="thesis_car" speedFactor="1.02" vaporized="">
        <emissions CO_abs="11577.80" CO2_abs="356646.19" HC_abs="61.03" PMx_abs="7.37" NOx_abs="153.77" fuel_abs="113756.31" electricity_abs="0.00"/>
    </tripinfo>
    <tripinfo id="43" depart="129.00" departLane="-174398011#1_0" departPos="4.60" departSpeed="0.00" departDelay="0.00" arrival="178.00" arrivalLane="744926195#2_0" arrivalPos="19.04" arrivalSpeed="13.82" duration="49.00" routeLength="499.71" waitingTime="0.00" waitingCount="0" stopTime="0.00" timeLoss="12.98" rerouteNo="1" devices="tripinfo_43 routing_43 emissions_43" vType="thesis_car" speedFactor="1.04" vaporized="">
        <emissions CO_abs="2984.80" CO2_abs="179226.73" HC_abs="17.80" PMx_abs="3.36" NOx_abs="74.47" fuel_abs="57165.01" electricity_abs="0.00"/>
    </tripinfo>
    <tripinfo id="22" depart="66.00" departLane="744645404#1_3" departPos="4.60" departSpeed="0.00" departDelay="0.00" arrival="182.00" arrivalLane="744634701#1_0" arrivalPos="89.90" arrivalSpeed="7.56" duration="116.00" routeLength="747.97" waitingTime="42.00" waitingCount="2" stopTime="0.00" timeLoss="66.49" rerouteNo="1" devices="tripinfo_22 routing_22 emissions_22" vType="thesis_car" speedFactor="0.97" vaporized="">
        <emissions CO_abs="12407.58" CO2_abs="417309.94" HC_abs="66.31" PMx_abs="8.73" NOx_abs="178.85" fuel_abs="133104.98" electricity_abs="0.00"/>
    </tripinfo>
    <tripinfo id="29" depart="87.00" departLane="182331870#0_0" departPos="4.60" departSpeed="0.00" departDelay="0.00" arrival="195.00" arrivalLane="184852743#0_1" arrivalPos="24.94" arrivalSpeed="9.65" duration="108.00" routeLength="395.30" waitingTime="52.00" waitingCount="2" stopTime="0.00" timeLoss="68.94" rerouteNo="1" devices="tripinfo_29 routing_29 emissions_29" vType="thesis_car" speedFactor="0.93" vaporized="">
        <emissions CO_abs="12382.64" CO2_abs="310430.17" HC_abs="63.64" PMx_abs="6.72" NOx_abs="135.96" fuel_abs="99016.31" electricity_abs="0.00"/>
    </tripinfo>
    <tripinfo id="35" depart="105.00" departLane="569215926_2" departPos="4.28" departSpeed="0.00" departDelay="0.00" arrival="200.00" arrivalLane="184852733#1_0" arrivalPos="45.32" arrivalSpeed="8.45" duration="95.00" routeLength="473.71" waitingTime="36.00" waitingCount="2" stopTime="0.00" timeLoss="62.76" rerouteNo="1" devices="tripinfo_35 routing_35 emissions_35" vType="thesis_car" speedFactor="1.02" vaporized="">
        <emissions CO_abs="10847.45" CO2_abs="332434.68" HC_abs="57.27" PMx_abs="7.16" NOx_abs="144.95" fuel_abs="106033.52" electricity_abs="0.00"/>
    </tripinfo>
    <tripinfo id="36" depart="108.00" departLane="744632165#1_0" departPos="4.60" departSpeed="0.00" departDelay="0.00" arrival="202.00" arrivalLane="747447020#1_1" arrivalPos="18.06" arrivalSpeed="13.12" duration="94.00" routeLength="586.25" waitingTime="36.00" waitingCount="2" stopTime="0.00" timeLoss="55.83" rerouteNo="1" devices="tripinfo_36 routing_36 emissions_36" vType="thesis_car" speedFactor="0.97" vaporized="">
        <emissions CO_abs="10140.64" CO2_abs="334219.15" HC_abs="53.97" PMx_abs="6.99" NOx_abs="143.34" fuel_abs="106602.50" electricity_abs="0.00"/>
    </tripinfo>
    <tripinfo id="54" depart="162.00" departLane="747951014#0_0" departPos="4.60" departSpeed="0.00" departDelay="0.00" arrival="205.00" arrivalLane="747939433#1_0" arrivalPos="71.35" arrivalSpeed="13.87" duration="43.00" routeLength="204.80" waitingTime="16.00" waitingCount="1" stopTime="0.00" timeLoss="29.73" rerouteNo="1" devices="tripinfo_54 routing_54 emissions_54" vType="thesis_car" speedFactor="1.00" vaporized="">
        <emissions CO_abs="5286.69" CO2_abs="161955.96" HC_abs="27.90" PMx_abs="3.46" NOx_abs="70.68" fuel_abs="51657.56" electricity_abs="0.00"/>
    </tripinfo>
    <tripinfo id="37" depart="112.00" departLane="27788646#2_2" departPos="4.60" departSpeed="0.00" departDelay="1.00" arrival="210.00" arrivalLane="1280054791_1" arrivalPos="55.68" arrivalSpeed="9.35" duration="98.00" routeLength="716.89" waitingTime="34.00" waitingCount="2" stopTime="0.00" timeLoss="60.18" rerouteNo="1" devices="tripinfo_37 routing_37 emissions_37" vType="thesis_car" speedFactor="1.18" vaporized="">
        <emissions CO_abs="10823.17" CO2_abs="381634.53" HC_abs="58.21" PMx_abs="8.13" NOx_abs="163.98" fuel_abs="121725.49" electricity_abs="0.00"/>
    </tripinfo>
    <tripinfo id="62" depart="186.00" departLane="-747447020#1_0" departPos="4.60" departSpeed="0.00" departDelay="0.00" arrival="213.00" arrivalLane="174398008#1_0" arrivalPos="14.14" arrivalSpeed="7.30" duration="27.00" routeLength="185.06" waitingTime="0.00" waitingCount="0" stopTime="0.00" timeLoss="5.65" rerouteNo="1" devices="tripinfo_62 routing_62 emissions_62" vType="thesis_car" speedFactor="1.02" vaporized="">
        <emissions CO_abs="1472.58" CO2_abs="63225.82" HC_abs="8.16" PMx_abs="1.09" NOx_abs="26.09" fuel_abs="20166.45" electricity_abs="0.00"/>
    </tripinfo>
    <tripinfo id="53" depart="159.00" departLane="174398024#2_0" departPos="4.60" departSpeed="0.00" departDelay="0.00" arrival="220.00" arrivalLane="-1279681436#0_0" arrivalPos="23.22" arrivalSpeed="13.49" duration="61.00" routeLength="489.27" waitingTime="11.00" waitingCount="1" stopTime="0.00" timeLoss="26.42" rerouteNo="1" devices="tripinfo_53 routing_53 emissions_53" vType="thesis_car" speedFactor="1.10" vaporized="">
        <emissions CO_abs="5188.33" CO2_abs="221859.70" HC_abs="28.66" PMx_abs="4.23" NOx_abs="92.42" fuel_abs="70763.81" electricity_abs="0.00"/>
    </tripinfo>
    <tripinfo id="50" depart="150.00" departLane="-1212504575_1" departPos="4.60" departSpeed="0.00" departDelay="0.00" arrival="222.00" arrivalLane="32487759#2_2" arrivalPos="16.69" arrivalSpeed="11.05" duration="72.00" routeLength="703.17" waitingTime="0.00" waitingCount="0" stopTime="0.00" timeLoss="15.51" rerouteNo="1" devices="tripinfo_50 routing_50 emissions_50" vType="thesis_car" speedFactor="0.85" vaporized="">
        <emissions CO_abs="3649.60" CO2_abs="227391.27" HC_abs="21.80" PMx_abs="3.79" NOx_abs="91.09" fuel_abs="72527.74" electricity_abs="0.00"/>
    </tripinfo>
    <tripinfo id="57" depart="171.00" departLane="747228982#0_1" departPos="4.60" departSpeed="0.00" departDelay="0.00" arrival="228.00" arrivalLane="-744949908_1" arrivalPos="53.44" arrivalSpeed="14.72" duration="57.00" routeLength="378.03" waitingTime="17.00" waitingCount="2" stopTime="0.00" timeLoss="37.63" rerouteNo="1" devices="tripinfo_57 routing_57 emissions_57" vType="thesis_car" speedFactor="1.14" vaporized="">
        <emissions CO_abs="6435.35" CO2_abs="234006.47" HC_abs="34.78" PMx_abs="4.88" NOx_abs="100.59" fuel_abs="74638.25" electricity_abs="0.00"/>
    </tripinfo>
    <tripinfo id="41" depart="123.00" departLane="747228982#0_0" departPos="4.60" departSpeed="0.00" departDelay="0.00" arrival="235.00" arrivalLane="32836569#1_0" arrivalPos="42.32" arrivalSpeed="7.63" duration="112.00" routeLength="788.22" waitingTime="43.00" waitingCount="2" stopTime="0.00" timeLoss="71.53" rerouteNo="1" devices="tripinfo_41 routing_41 emissions_41" vType="thesis_car" speedFactor="0.96" vaporized="">
        <emissions CO_abs="13490.02" CO2_abs="460270.12" HC_abs="72.48" PMx_abs="10.23" NOx_abs="200.25" fuel_abs="146806.83" electricity_abs="0.00"/>
    </tripinfo>
    <tripinfo id="16" depart="48.00" departLane="1279681436#0_0" departPos="4.60" departSpeed="0.00" departDelay="0.00" arrival="236.00" arrivalLane="307308395#1_0" arrivalPos="118.52" arrivalSpeed="7.11" duration="188.00" routeLength="1223.27" waitingTime="41.00" waitingCount="3" stopTime="0.00" timeLoss="80.24" rerouteNo="1" devices="tripinfo_16 routing_16 emissions_16" vType="thesis_car" speedFactor="0.88" vaporized="">
        <emissions CO_abs="15822.66" CO2_abs="562571.08" HC_abs="85.16" PMx_abs="11.15" NOx_abs="238.60" fuel_abs="179437.41" electricity_abs="0.00"/>
    </tripinfo>
    <tripinfo id="47" depart="141.00" departLane="750570767_0" departPos="4.60" departSpeed="0.00" departDelay="0.00" arrival="236.00" arrivalLane="747228981#1_1" arrivalPos="37.53" arrivalSpeed="13.02" duration="95.00" routeLength="930.65" waitingTime="7.00" waitingCount="3" stopTime="0.00" timeLoss="47.57" rerouteNo="1" devices="tripinfo_47 routing_47 emissions_47" vType="thesis_car" speedFactor="0.90" vaporized="">
        <emissions CO_abs="9109.10" CO2_abs="462075.32" HC_abs="52.47" PMx_abs="9.63" NOx_abs="197.89" fuel_abs="147380.42" electricity_abs="0.00"/>
    </tripinfo>
    <tripinfo id="25" depart="75.00" departLane="96487803#1_0" departPos="4.60" departSpeed="0.00" departDelay="0.00" arrival="244.00" arrivalLane="744645397#1_2" arrivalPos="154.64" arrivalSpeed="24.24" duration="169.00" routeLength="810.66" waitingTime="75.00" waitingCount="5" stopTime="0.00" timeLoss="120.33" rerouteNo="1" devices="tripinfo_25 routing_25 emissions_25" vType="thesis_car" speedFactor="0.87" vaporized="">
        <emissions CO_abs="21540.08" CO2_abs="630302.43" HC_abs="112.97" PMx_abs="14.02" NOx_abs="276.03" fuel_abs="201041.74" electricity_abs="0.00"/>
    </tripinfo>
    <tripinfo id="38" depart="114.00" departLane="96489258#1_0" departPos="4.60" departSpeed="0.00" departDelay="0.00" arrival="245.00" arrivalLane="744632144#0_0" arrivalPos="5.21" arrivalSpeed="8.42" duration="131.00" routeLength="752.87" waitingTime="45.00" waitingCount="4" stopTime="0.00" timeLoss="88.46" rerouteNo="1" devices="tripinfo_38 routing_38 emissions_38" vType="thesis_car" speedFactor="1.10" vaporized="">
        <emissions CO_abs="15291.43" CO2_abs="490513.21" HC_abs="81.30" PMx_abs="10.65" NOx_abs="213.77" fuel_abs="156453.82" electricity_abs="0.00"/>
    </tripinfo>