<?xml version="1.0" encoding="UTF-8"?>

<!-- generated on 2026-01-14T14:12:48.205735+08:00 by Eclipse SUMO GUI 1.25.0
<sumoConfiguration xmlns:xsi="http://www.w3.org/2001/XMLSchema-instance" xsi:noNamespaceSchemaLocation="http://sumo.dlr.de/xsd/sumoConfiguration.xsd">

    <input>
        <net-file value="C:\Users\ASUS\Documents\SUMO_Networks\scenarios\test_simple_2lanes\final_map.net.xml"/>
        <route-files value="C:\Users\ASUS\Documents\SUMO_Networks\scenarios\test_simple_2lanes\trips_high.xml"/>
    </input>

    <output>
        <summary-output value="C:\Users\ASUS\Documents\SUMO_Networks\scenarios\test_simple_2lanes\data\data_selfish_high_summary.xml"/>
        <tripinfo-output value="C:\Users\ASUS\Documents\SUMO_Networks\scenarios\test_simple_2lanes\data\data_selfish_high_tripinfo.xml"/>
        <statistic-output value="C:\Users\ASUS\Documents\SUMO_Networks\scenarios\test_simple_2lanes\data\data_selfish_high_stats.xml"/>
    </output>

    <time>
        <begin value="0"/>
        <end value="3600"/>
    </time>

    <processing>
        <ignore-junction-blocker value="1"/>
        <time-to-teleport value="300"/>
    </processing>

    <report>
        <duration-log.statistics value="true"/>
    </report>

</sumoConfiguration>
-->

<tripinfos xmlns:xsi="http://www.w3.org/2001/XMLSchema-instance" xsi:noNamespaceSchemaLocation="http://sumo.dlr.de/xsd/tripinfo_file.xsd">
    <tripinfo id="12" depart="31.00" departLane="E3_0" departPos="5.10" departSpeed="0.00" departDelay="0.28" arrival="69.00" arrivalLane="E3_0" arrivalPos="479.20" arrivalSpeed="13.55" duration="38.00" routeLength="474.10" waitingTime="0.00" waitingCount="0" stopTime="0.00" timeLoss="4.72" rerouteNo="1" devices="tripinfo_12 routing_12" vType="DEFAULT_VEHTYPE" speedFactor="1.05" vaporized=""/>
    <tripinfo id="16" depart="41.00" departLane="E3_0" departPos="5.10" departSpeed="0.00" departDelay="0.04" arrival="85.00" arrivalLane="E3_0" arrivalPos="479.20" arrivalSpeed="11.61" duration="44.00" routeLength="474.10" waitingTime="0.00" waitingCount="0" stopTime="0.00" timeLoss="4.88" rerouteNo="1" devices="tripinfo_16 routing_16" vType="DEFAULT_VEHTYPE" speedFactor="0.88" vaporized=""/>
    <tripinfo id="17" depart="44.00" departLane="E3_0" departPos="5.10" departSpeed="0.00" departDelay="0.48" arrival="86.00" arrivalLane="E3_1" arrivalPos="479.20" arrivalSpeed="12.55" duration="42.00" routeLength="474.10" waitingTime="0.00" waitingCount="0" stopTime="0.00" timeLoss="4.85" rerouteNo="1" devices="tripinfo_17 routing_17" vType="DEFAULT_VEHTYPE" speedFactor="0.94" vaporized=""/>
    <tripinfo id="1" depart="3.00" departLane="E0_0" departPos="5.10" departSpeed="0.00" departDelay="0.44" arrival="87.00" arrivalLane="E4_0" arrivalPos="489.60" arrivalSpeed="12.93" duration="84.00" routeLength="983.13" waitingTime="0.00" waitingCount="0" stopTime="0.00" timeLoss="7.93" rerouteNo="0" devices="tripinfo_1 routing_1" vType="DEFAULT_VEHTYPE" speedFactor="0.94" vaporized=""/>
    <tripinfo id="0" depart="0.00" departLane="-E9_0" departPos="5.10" departSpeed="0.00" departDelay="0.00" arrival="111.00" arrivalLane="-E0_0" arrivalPos="489.60" arrivalSpeed="14.40" duration="111.00" routeLength="1483.13" waitingTime="0.00" waitingCount="0" stopTime="0.00" timeLoss="8.99" rerouteNo="1" devices="tripinfo_0 routing_0" vType="DEFAULT_VEHTYPE" speedFactor="1.06" vaporized=""/>
    <tripinfo id="8" depart="21.00" departLane="E1_0" departPos="5.10" departSpeed="0.00" departDelay="0.52" arrival="114.00" arrivalLane="E5_0" arrivalPos="479.20" arrivalSpeed="12.65" duration="93.00" routeLength="972.65" waitingTime="2.00" waitingCount="1" stopTime="0.00" timeLoss="16.80" rerouteNo="0" devices="tripinfo_8 routing_8" vType="DEFAULT_VEHTYPE" speedFactor="0.94" vaporized=""/>
    <tripinfo id="2" depart="6.00" departLane="-E5_0" departPos="5.10" departSpeed="0.00" departDelay="0.88" arrival="122.00" arrivalLane="-E0_0" arrivalPos="489.60" arrivalSpeed="13.50" duration="116.00" routeLength="1472.73" waitingTime="0.00" waitingCount="0" stopTime="0.00" timeLoss="10.19" rerouteNo="1" devices="tripinfo_2 routing_2" vType="DEFAULT_VEHTYPE" speedFactor="1.01" vaporized=""/>
    <tripinfo id="15" depart="39.00" departLane="-E5_0" departPos="5.10" departSpeed="0.00" departDelay="0.60" arrival="124.00" arrivalLane="E2_0" arrivalPos="489.60" arrivalSpeed="11.73" duration="85.00" routeLength="983.05" waitingTime="0.00" waitingCount="0" stopTime="0.00" timeLoss="7.48" rerouteNo="0" devices="tripinfo_15 routing_15" vType="DEFAULT_VEHTYPE" speedFactor="0.93" vaporized=""/>
    <tripinfo id="13" depart="34.00" departLane="E1_0" departPos="5.10" departSpeed="0.00" departDelay="0.72" arrival="127.00" arrivalLane="E5_0" arrivalPos="479.20" arrivalSpeed="14.66" duration="93.00" routeLength="972.65" waitingTime="10.00" waitingCount="2" stopTime="0.00" timeLoss="29.96" rerouteNo="0" devices="tripinfo_13 routing_13" vType="DEFAULT_VEHTYPE" speedFactor="1.12" vaporized=""/>
    <tripinfo id="37" depart="95.00" departLane="-E7_0" departPos="5.10" departSpeed="0.00" departDelay="0.28" arrival="129.00" arrivalLane="-E7_1" arrivalPos="479.20" arrivalSpeed="15.42" duration="34.00" routeLength="474.10" waitingTime="0.00" waitingCount="0" stopTime="0.00" timeLoss="4.46" rerouteNo="1" devices="tripinfo_37 routing_37" vType="DEFAULT_VEHTYPE" speedFactor="1.18" vaporized=""/>
    <tripinfo id="20" depart="52.00" departLane="-E10_0" departPos="5.10" departSpeed="0.00" departDelay="0.80" arrival="130.00" arrivalLane="-E5_0" arrivalPos="479.20" arrivalSpeed="13.73" duration="78.00" routeLength="983.05" waitingTime="0.00" waitingCount="0" stopTime="0.00" timeLoss="7.32" rerouteNo="0" devices="tripinfo_20 routing_20" vType="DEFAULT_VEHTYPE" speedFactor="1.02" vaporized=""/>
    <tripinfo id="6" depart="16.00" departLane="-E2_0" departPos="5.10" departSpeed="0.00" departDelay="0.64" arrival="140.00" arrivalLane="E3_1" arrivalPos="479.20" arrivalSpeed="13.60" duration="124.00" routeLength="1472.73" waitingTime="5.00" waitingCount="1" stopTime="0.00" timeLoss="21.14" rerouteNo="1" devices="tripinfo_6 routing_6" vType="DEFAULT_VEHTYPE" speedFactor="1.05" vaporized=""/>
    <tripinfo id="39" depart="100.00" departLane="-E5_0" departPos="5.10" departSpeed="0.00" departDelay="0.16" arrival="143.00" arrivalLane="-E5_0" arrivalPos="479.20" arrivalSpeed="12.39" duration="43.00" routeLength="474.10" waitingTime="0.00" waitingCount="0" stopTime="0.00" timeLoss="4.42" rerouteNo="1" devices="tripinfo_39 routing_39" vType="DEFAULT_VEHTYPE" speedFactor="0.90" vaporized=""/>
    <tripinfo id="10" depart="26.00" departLane="E7_0" departPos="5.10" departSpeed="0.00" departDelay="0.40" arrival="147.00" arrivalLane="E1_0" arrivalPos="479.20" arrivalSpeed="14.27" duration="121.00" routeLength="1471.21" waitingTime="2.00" waitingCount="1" stopTime="0.00" timeLoss="22.16" rerouteNo="1" devices="tripinfo_10 routing_10" vType="DEFAULT_VEHTYPE" speedFactor="1.09" vaporized=""/>
    <tripinfo id="11" depart="29.00" departLane="-E10_0" departPos="5.10" departSpeed="0.00" departDelay="0.84" arrival="150.00" arrivalLane="-E1_0" arrivalPos="479.20" arrivalSpeed="13.57" duration="121.00" routeLength="1471.28" waitingTime="1.00" waitingCount="1" stopTime="0.00" timeLoss="15.99" rerouteNo="1" devices="tripinfo_11 routing_11" vType="DEFAULT_VEHTYPE" speedFactor="1.03" vaporized=""/>
    <tripinfo id="27" depart="70.00" departLane="-E11_0" departPos="5.10" departSpeed="0.00" departDelay="0.88" arrival="159.00" arrivalLane="E10_0" arrivalPos="489.60" arrivalSpeed="12.72" duration="89.00" routeLength="993.45" waitingTime="1.00" waitingCount="1" stopTime="0.00" timeLoss="12.69" rerouteNo="0" devices="tripinfo_27 routing_27" vType="DEFAULT_VEHTYPE" speedFactor="0.95" vaporized=""/>
    <tripinfo id="46" depart="121.00" departLane="E7_0" departPos="5.10" departSpeed="0.00" departDelay="3.24" arrival="160.00" arrivalLane="E7_0" arrivalPos="479.20" arrivalSpeed="12.83" duration="39.00" routeLength="474.10" waitingTime="0.00" waitingCount="0" stopTime="0.00" timeLoss="4.61" rerouteNo="1" devices="tripinfo_46 routing_46" vType="DEFAULT_VEHTYPE" speedFactor="1.00" vaporized=""/>
    <tripinfo id="4" depart="11.00" departLane="-E1_0" departPos="5.10" departSpeed="0.00" departDelay="0.76" arrival="165.00" arrivalLane="-E5_1" arrivalPos="479.20" arrivalSpeed="13.75" duration="154.00" routeLength="1938.79" waitingTime="0.00" waitingCount="0" stopTime="0.00" timeLoss="16.60" rerouteNo="1" devices="tripinfo_4 routing_4" vType="DEFAULT_VEHTYPE" speedFactor="1.03" vaporized=""/>
    <tripinfo id="36" depart="93.00" departLane="E5_0" departPos="5.10" departSpeed="0.00" departDelay="0.84" arrival="176.00" arrivalLane="E11_0" arrivalPos="489.60" arrivalSpeed="12.31" duration="83.00" routeLength="984.50" waitingTime="0.00" waitingCount="0" stopTime="0.00" timeLoss="9.69" rerouteNo="0" devices="tripinfo_36 routing_36" vType="DEFAULT_VEHTYPE" speedFactor="0.97" vaporized=""/>
    <tripinfo id="28" depart="72.00" departLane="E7_0" departPos="5.10" departSpeed="0.00" departDelay="0.32" arrival="178.00" arrivalLane="E4_0" arrivalPos="489.60" arrivalSpeed="15.69" duration="106.00" routeLength="1483.06" waitingTime="0.00" waitingCount="0" stopTime="0.00" timeLoss="10.69" rerouteNo="1" devices="tripinfo_28 routing_28" vType="DEFAULT_VEHTYPE" speedFactor="1.13" vaporized=""/>
    <tripinfo id="22" depart="57.00" departLane="-E9_0" departPos="5.10" departSpeed="0.00" departDelay="0.68" arrival="186.00" arrivalLane="E1_0" arrivalPos="479.20" arrivalSpeed="13.10" duration="129.00" routeLength="1483.05" waitingTime="0.00" waitingCount="0" stopTime="0.00" timeLoss="18.25" rerouteNo="1" devices="tripinfo_22 routing_22" vType="DEFAULT_VEHTYPE" speedFactor="0.97" vaporized=""/>
    <tripinfo id="19" depart="49.00" departLane="-E2_0" departPos="5.10" departSpeed="0.00" departDelay="0.36" arrival="189.00" arrivalLane="-E7_1" arrivalPos="479.20" arrivalSpeed="14.80" duration="140.00" routeLength="1960.96" waitingTime="0.00" waitingCount="0" stopTime="0.00" timeLoss="16.76" rerouteNo="1" devices="tripinfo_19 routing_19" vType="DEFAULT_VEHTYPE" speedFactor="1.16" vaporized=""/>
    <tripinfo id="31" depart="80.00" departLane="-E2_0" departPos="5.10" departSpeed="0.00" departDelay="0.64" arrival="189.00" arrivalLane="-E0_0" arrivalPos="489.60" arrivalSpeed="14.98" duration="109.00" routeLength="1494.90" waitingTime="1.00" waitingCount="1" stopTime="0.00" timeLoss="15.51" rerouteNo="1" devices="tripinfo_31 routing_31" vType="DEFAULT_VEHTYPE" speedFactor="1.15" vaporized=""/>
    <tripinfo id="51" depart="131.00" departLane="E5_0" departPos="5.10" departSpeed="0.00" departDelay="0.44" arrival="202.00" arrivalLane="E7_0" arrivalPos="479.20" arrivalSpeed="15.52" duration="71.00" routeLength="972.65" waitingTime="0.00" waitingCount="0" stopTime="0.00" timeLoss="10.08" rerouteNo="0" devices="tripinfo_51 routing_51" vType="DEFAULT_VEHTYPE" speedFactor="1.17" vaporized=""/>
    <tripinfo id="32" depart="82.00" departLane="-E4_0" departPos="5.10" departSpeed="0.00" departDelay="0.08" arrival="208.00" arrivalLane="-E7_0" arrivalPos="479.20" arrivalSpeed="13.15" duration="126.00" routeLength="1472.73" waitingTime="1.00" waitingCount="1" stopTime="0.00" timeLoss="19.05" rerouteNo="1" devices="tripinfo_32 routing_32" vType="DEFAULT_VEHTYPE" speedFactor="1.01" vaporized=""/>
    <tripinfo id="65" depart="167.00" departLane="-E5_0" departPos="5.10" departSpeed="0.00" departDelay="0.60" arrival="211.00" arrivalLane="-E5_1" arrivalPos="479.20" arrivalSpeed="11.93" duration="44.00" routeLength="474.10" waitingTime="0.00" waitingCount="0" stopTime="0.00" timeLoss="4.84" rerouteNo="1" devices="tripinfo_65 routing_65" vType="DEFAULT_VEHTYPE" speedFactor="0.88" vaporized=""/>
    <tripinfo id="48" depart="123.00" departLane="-E3_0" departPos="5.10" departSpeed="0.00" departDelay="0.12" arrival="212.00" arrivalLane="E4_0" arrivalPos="489.60" arrivalSpeed="11.83" duration="89.00" routeLength="984.50" waitingTime="0.00" waitingCount="0" stopTime="0.00" timeLoss="7.51" rerouteNo="0" devices="tripinfo_48 routing_48" vType="DEFAULT_VEHTYPE" speedFactor="0.88" vaporized=""/>
    <tripinfo id="54" depart="139.00" departLane="E1_0" departPos="5.10" departSpeed="0.00" departDelay="0.76" arrival="216.00" arrivalLane="E2_0" arrivalPos="489.60" arrivalSpeed="13.06" duration="77.00" routeLength="984.50" waitingTime="0.00" waitingCount="0" stopTime="0.00" timeLoss="6.22" rerouteNo="0" devices="tripinfo_54 routing_54" vType="DEFAULT_VEHTYPE" speedFactor="1.00" vaporized=""/>
    <tripinfo id="35" depart="90.00" departLane="-E9_0" departPos="5.10" departSpeed="0.00" departDelay="0.40" arrival="218.00" arrivalLane="E10_0" arrivalPos="489.60" arrivalSpeed="13.37" duration="128.00" routeLength="1493.45" waitingTime="5.00" waitingCount="2" stopTime="0.00" timeLoss="21.88" rerouteNo="1" devices="tripinfo_35 routing_35" vType="DEFAULT_VEHTYPE" speedFactor="1.02" vaporized=""/>
    <tripinfo id="52" depart="135.00" departLane="-E3_0" departPos="5.10" departSpeed="0.00" departDelay="1.88" arrival="221.00" arrivalLane="E4_0" arrivalPos="489.60" arrivalSpeed="13.60" duration="86.00" routeLength="984.50" waitingTime="4.00" waitingCount="1" stopTime="0.00" timeLoss="16.28" rerouteNo="0" devices="tripinfo_52 routing_52" vType="DEFAULT_VEHTYPE" speedFactor="1.02" vaporized=""/>
    <tripinfo id="53" depart="136.00" departLane="-E8_0" departPos="5.10" departSpeed="0.00" departDelay="0.32" arrival="221.00" arrivalLane="-E3_0" arrivalPos="479.20" arrivalSpeed="4.73" duration="85.00" routeLength="972.73" waitingTime="5.00" waitingCount="2" stopTime="0.00" timeLoss="20.67" rerouteNo="0" devices="tripinfo_53 routing_53" vType="DEFAULT_VEHTYPE" speedFactor="1.10" vaporized=""/>
    <tripinfo id="55" depart="142.00" departLane="E1_0" departPos="5.10" departSpeed="0.00" departDelay="1.20" arrival="221.00" arrivalLane="E2_0" arrivalPos="489.60" arrivalSpeed="13.02" duration="79.00" routeLength="984.50" waitingTime="0.00" waitingCount="0" stopTime="0.00" timeLoss="7.25" rerouteNo="0" devices="tripinfo_55 routing_55" vType="DEFAULT_VEHTYPE" speedFactor="1.00" vaporized=""/>
    <tripinfo id="57" depart="146.00" departLane="E5_0" departPos="5.10" departSpeed="0.00" departDelay="0.08" arrival="222.00" arrivalLane="E7_0" arrivalPos="479.20" arrivalSpeed="15.19" duration="76.00" routeLength="972.65" waitingTime="1.00" waitingCount="1" stopTime="0.00" timeLoss="13.43" rerouteNo="0" devices="tripinfo_57 routing_57" vType="DEFAULT_VEHTYPE" speedFactor="1.14" vaporized=""/>
    <tripinfo id="33" depart="85.00" departLane="-E2_0" departPos="5.10" departSpeed="0.00" departDelay="0.52" arrival="225.00" arrivalLane="E9_0" arrivalPos="489.60" arrivalSpeed="15.25" duration="140.00" routeLength="1983.13" waitingTime="0.00" waitingCount="0" stopTime="0.00" timeLoss="16.75" rerouteNo="1" devices="tripinfo_33 routing_33" vType="DEFAULT_VEHTYPE" speedFactor="1.17" vaporized=""/>
    <tripinfo id="58" depart="149.00" departLane="-E3_0" departPos="5.10" departSpeed="0.00" departDelay="0.52" arrival="228.00" arrivalLane="-E0_0" arrivalPos="489.60" arrivalSpeed="13.18" duration="79.00" routeLength="972.73" waitingTime="0.00" waitingCount="0" stopTime="0.00" timeLoss="9.27" rerouteNo="0" devices="tripinfo_58 routing_58" vType="DEFAULT_VEHTYPE" speedFactor="1.02" vaporized=""/>
    <tripinfo id="14" depart="36.00" departLane="-E7_0" departPos="5.10" departSpeed="0.00" departDelay="0.16" arrival="234.00" arrivalLane="E9_0" arrivalPos="489.60" arrivalSpeed="13.58" duration="198.00" routeLength="2449.19" waitingTime="0.00" waitingCount="0" stopTime="0.00" timeLoss="18.05" rerouteNo="1" devices="tripinfo_14 routing_14" vType="DEFAULT_VEHTYPE" speedFactor="0.99" vaporized=""/>
    <tripinfo id="43" depart="111.00" departLane="E1_0" departPos="5.10" departSpeed="0.00" departDelay="0.92" arrival="234.00" arrivalLane="E10_0" arrivalPos="489.60" arrivalSpeed="13.81" duration="123.00" routeLength="1471.28" waitingTime="4.00" waitingCount="1" stopTime="0.00" timeLoss="19.05" rerouteNo="1" devices="tripinfo_43 routing_43" vType="DEFAULT_VEHTYPE" speedFactor="1.04" vaporized=""/>
    <tripinfo id="30" depart="77.00" departLane="E3_0" departPos="5.10" departSpeed="0.00" departDelay="0.20" arrival="238.00" arrivalLane="E6_0" arrivalPos="489.60" arrivalSpeed="16.31" duration="161.00" routeLength="1960.96" waitingTime="13.00" waitingCount="3" stopTime="0.00" timeLoss="39.66" rerouteNo="1" devices="tripinfo_30 routing_30" vType="DEFAULT_VEHTYPE" speedFactor="1.18" vaporized=""/>
    <tripinfo id="60" depart="154.00" departLane="-E10_0" departPos="5.10" departSpeed="0.00" departDelay="0.40" arrival="238.00" arrivalLane="E11_0" arrivalPos="489.60" arrivalSpeed="14.20" duration="84.00" routeLength="983.13" waitingTime="7.00" waitingCount="1" stopTime="0.00" timeLoss="18.07" rerouteNo="0" devices="tripinfo_60 routing_60" vType="DEFAULT_VEHTYPE" speedFactor="1.08" vaporized=""/>
    <tripinfo id="5" depart="13.00" departLane="-E9_0" departPos="5.10" departSpeed="0.00" departDelay="0.20" arrival="244.00" arrivalLane="E2_0" arrivalPos="489.60" arrivalSpeed="10.82" duration="231.00" routeLength="1993.45" waitingTime="26.00" waitingCount="5" stopTime="0.00" timeLoss="56.60" rerouteNo="1" devices="tripinfo_5 routing_5" vType="DEFAULT_VEHTYPE" speedFactor="0.83" vaporized=""/>
    <tripinfo id="63" depart="162.00" departLane="-E6_0" departPos="5.10" departSpeed="0.00" departDelay="0.72" arrival="244.00" arrivalLane="E2_1" arrivalPos="489.60" arrivalSpeed="12.60" duration="82.00" routeLength="983.13" waitingTime="0.00" waitingCount="0" stopTime="0.00" timeLoss="8.62" rerouteNo="0" devices="tripinfo_63 routing_63" vType="DEFAULT_VEHTYPE" speedFactor="0.99" vaporized=""/>
    <tripinfo id="23" depart="59.00" departLane="-E4_0" departPos="5.10" departSpeed="0.00" departDelay="0.12" arrival="248.00" arrivalLane="-E5_1" arrivalPos="479.20" arrivalSpeed="12.29" duration="189.00" routeLength="1960.96" waitingTime="2.00" waitingCount="1" stopTime="0.00" timeLoss="28.11" rerouteNo="1" devices="tripinfo_23 routing_23" vType="DEFAULT_VEHTYPE" speedFactor="0.89" vaporized=""/>
    <tripinfo id="21" depart="55.00" departLane="-E10_0" departPos="5.10" departSpeed="0.00" departDelay="1.24" arrival="251.00" arrivalLane="-E7_0" arrivalPos="479.20" arrivalSpeed="13.52" duration="196.00" routeLength="2447.74" waitingTime="0.00" waitingCount="0" stopTime="0.00" timeLoss="18.01" rerouteNo="1" devices="tripinfo_21 routing_21" vType="DEFAULT_VEHTYPE" speedFactor="1.01" vaporized=""/>
    <tripinfo id="3" depart="8.00" departLane="-E2_0" departPos="5.10" departSpeed="0.00" departDelay="0.32" arrival="252.00" arrivalLane="E2_1" arrivalPos="489.60" arrivalSpeed="13.77" duration="244.00" routeLength="2958.14" waitingTime="12.00" waitingCount="3" stopTime="0.00" timeLoss="44.64" rerouteNo="1" devices="tripinfo_3 routing_3" vType="DEFAULT_VEHTYPE" speedFactor="1.08" vaporized=""/>
    <tripinfo id="29" depart="75.00" departLane="-E7_0" departPos="5.10" departSpeed="0.00" departDelay="0.76" arrival="253.00" arrivalLane="E4_0" arrivalPos="489.60" arrivalSpeed="12.41" duration="178.00" routeLength="1959.51" waitingTime="5.00" waitingCount="1" stopTime="0.00" timeLoss="23.39" rerouteNo="1" devices="tripinfo_29 routing_29" vType="DEFAULT_VEHTYPE" speedFactor="0.93" vaporized=""/>
    <tripinfo id="68" depart="175.00" departLane="-E6_0" departPos="5.10" departSpeed="0.00" departDelay="0.92" arrival="253.00" arrivalLane="E2_0" arrivalPos="489.60" arrivalSpeed="13.29" duration="78.00" routeLength="983.13" waitingTime="0.00" waitingCount="0" stopTime="0.00" timeLoss="8.57" rerouteNo="0" devices="tripinfo_68 routing_68" vType="DEFAULT_VEHTYPE" speedFactor="1.04" vaporized=""/>
    <tripinfo id="69" depart="177.00" departLane="-E10_0" departPos="5.10" departSpeed="0.00" departDelay="0.36" arrival="256.00" arrivalLane="-E5_1" arrivalPos="479.20" arrivalSpeed="13.23" duration="79.00" routeLength="983.05" waitingTime="0.00" waitingCount="0" stopTime="0.00" timeLoss="8.25" rerouteNo="0" devices="tripinfo_69 routing_69" vType="DEFAULT_VEHTYPE" speedFactor="1.02" vaporized=""/>
    <tripinfo id="70" depart="180.00" departLane="-E4_0" departPos="5.10" departSpeed="0.00" departDelay="0.80" arrival="257.00" arrivalLane="E3_0" arrivalPos="479.20" arrivalSpeed="13.62" duration="77.00" routeLength="984.50" waitingTime="0.00" waitingCount="0" stopTime="0.00" timeLoss="6.80" rerouteNo="0" devices="tripinfo_70 routing_70" vType="DEFAULT_VEHTYPE" speedFactor="1.02" vaporized=""/>
    <tripinfo id="40" depart="103.00" departLane="E7_0" departPos="5.10" departSpeed="0.00" departDelay="0.60" arrival="261.00" arrivalLane="E2_0" arrivalPos="489.60" arrivalSpeed="14.18" duration="158.00" routeLength="1981.61" waitingTime="1.00" waitingCount="1" stopTime="0.00" timeLoss="17.72" rerouteNo="1" devices="tripinfo_40 routing_40" vType="DEFAULT_VEHTYPE" speedFactor="1.03" vaporized=""/>
    <tripinfo id="87" depart="223.00" departLane="E7_0" departPos="5.10" departSpeed="0.00" departDelay="0.28" arrival="261.00" arrivalLane="E7_0" arrivalPos="479.20" arrivalSpeed="14.40" duration="38.00" routeLength="474.10" waitingTime="0.00" waitingCount="0" stopTime="0.00" timeLoss="4.73" rerouteNo="1" devices="tripinfo_87 routing_87" vType="DEFAULT_VEHTYPE" speedFactor="1.04" vaporized=""/>
    <tripinfo id="7" depart="18.00" departLane="E1_0" departPos="5.10" departSpeed="0.00" departDelay="0.08" arrival="263.00" arrivalLane="-E0_0" arrivalPos="489.60" arrivalSpeed="11.12" duration="245.00" routeLength="2468.39" waitingTime="9.00" waitingCount="2" stopTime="0.00" timeLoss="41.74" rerouteNo="1" devices="tripinfo_7 routing_7" vType="DEFAULT_VEHTYPE" speedFactor="0.89" vaporized=""/>
    <tripinfo id="9" depart="24.00" departLane="-E4_0" departPos="5.10" departSpeed="0.00" departDelay="0.96" arrival="266.00" arrivalLane="-E3_1" arrivalPos="479.20" arrivalSpeed="10.67" duration="242.00" routeLength="2468.39" waitingTime="4.00" waitingCount="2" stopTime="0.00" timeLoss="30.98" rerouteNo="1" devices="tripinfo_9 routing_9" vType="DEFAULT_VEHTYPE" speedFactor="0.86" vaporized=""/>
    <tripinfo id="61" depart="157.00" departLane="-E10_0" departPos="5.10" departSpeed="0.00" departDelay="0.84" arrival="271.00" arrivalLane="E6_0" arrivalPos="489.60" arrivalSpeed="15.49" duration="114.00" routeLength="1493.45" waitingTime="5.00" waitingCount="1" stopTime="0.00" timeLoss="17.26" rerouteNo="1" devices="tripinfo_61 routing_61" vType="DEFAULT_VEHTYPE" speedFactor="1.12" vaporized=""/>
    <tripinfo id="42" depart="108.00" departLane="-E10_0" departPos="5.10" departSpeed="0.00" departDelay="0.48" arrival="272.00" arrivalLane="E4_0" arrivalPos="489.60" arrivalSpeed="14.19" duration="164.00" routeLength="1993.46" waitingTime="14.00" waitingCount="1" stopTime="0.00" timeLoss="32.01" rerouteNo="1" devices="tripinfo_42 routing_42" vType="DEFAULT_VEHTYPE" speedFactor="1.09" vaporized=""/>
    <tripinfo id="34" depart="88.00" departLane="E5_0" departPos="5.10" departSpeed="0.00" departDelay="0.96" arrival="277.00" arrivalLane="E1_0" arrivalPos="479.20" arrivalSpeed="13.37" duration="189.00" routeLength="1969.76" waitingTime="13.00" waitingCount="3" stopTime="0.00" timeLoss="43.77" rerouteNo="1" devices="tripinfo_34 routing_34" vType="DEFAULT_VEHTYPE" speedFactor="0.99" vaporized=""/>
    <tripinfo id="59" depart="152.00" departLane="E5_0" departPos="5.10" departSpeed="0.00" departDelay="0.96" arrival="277.00" arrivalLane="E9_0" arrivalPos="489.60" arrivalSpeed="13.26" duration="125.00" routeLength="1471.28" waitingTime="0.00" waitingCount="0" stopTime="0.00" timeLoss="14.29" rerouteNo="1" devices="tripinfo_59 routing_59" vType="DEFAULT_VEHTYPE" speedFactor="0.97" vaporized=""/>
    <tripinfo id="45" depart="116.00" departLane="E7_0" departPos="5.10" departSpeed="0.00" departDelay="0.80" arrival="282.00" arrivalLane="E2_0" arrivalPos="489.60" arrivalSpeed="14.05" duration="166.00" routeLength="1981.61" waitingTime="9.00" waitingCount="2" stopTime="0.00" timeLoss="33.78" rerouteNo="1" devices="tripinfo_45 routing_45" vType="DEFAULT_VEHTYPE" speedFactor="1.09" vaporized=""/>
    <tripinfo id="80" depart="205.00" departLane="E0_0" departPos="5.10" departSpeed="0.00" departDelay="0.20" arrival="283.00" arrivalLane="E4_0" arrivalPos="489.60" arrivalSpeed="14.11" duration="78.00" routeLength="983.13" waitingTime="0.00" waitingCount="0" stopTime="0.00" timeLoss="8.34" rerouteNo="0" devices="tripinfo_80 routing_80" vType="DEFAULT_VEHTYPE" speedFactor="1.03" vaporized=""/>
    <tripinfo id="56" depart="144.00" departLane="-E1_0" departPos="5.10" departSpeed="0.00" departDelay="0.64" arrival="289.00" arrivalLane="E8_0" arrivalPos="489.60" arrivalSpeed="12.37" duration="145.00" routeLength="1471.28" waitingTime="7.00" waitingCount="2" stopTime="0.00" timeLoss="25.64" rerouteNo="1" devices="tripinfo_56 routing_56" vType="DEFAULT_VEHTYPE" speedFactor="0.90" vaporized=""/>
    <tripinfo id="41" depart="105.00" departLane="-E10_0" departPos="5.10" departSpeed="0.00" departDelay="0.04" arrival="294.00" arrivalLane="-E0_0" arrivalPos="489.60" arrivalSpeed="13.09" duration="189.00" routeLength="1981.69" waitingTime="16.00" waitingCount="2" stopTime="0.00" timeLoss="37.88" rerouteNo="1" devices="tripinfo_41 routing_41" vType="DEFAULT_VEHTYPE" speedFactor="0.96" vaporized=""/>
    <tripinfo id="25" depart="64.00" departLane="-E9_0" departPos="5.10" departSpeed="0.00" departDelay="0.00" arrival="305.00" arrivalLane="E3_0" arrivalPos="479.20" arrivalSpeed="12.04" duration="241.00" routeLength="2447.74" waitingTime="10.00" waitingCount="2" stopTime="0.00" timeLoss="36.08" rerouteNo="1" devices="tripinfo_25 routing_25" vType="DEFAULT_VEHTYPE" speedFactor="0.87" vaporized=""/>
    <tripinfo id="88" depart="226.00" departLane="E7_0" departPos="5.10" departSpeed="0.00" departDelay="0.72" arrival="309.00" arrivalLane="E8_0" arrivalPos="489.60" arrivalSpeed="12.96" duration="83.00" routeLength="984.50" waitingTime="1.00" waitingCount="1" stopTime="0.00" timeLoss="12.54" rerouteNo="0" devices="tripinfo_88 routing_88" vType="DEFAULT_VEHTYPE" speedFactor="1.01" vaporized=""/>
    <tripinfo id="47" depart="121.00" departLane="-E9_0" departPos="5.10" departSpeed="0.00" departDelay="0.68" arrival="310.00" arrivalLane="E2_0" arrivalPos="489.60" arrivalSpeed="11.77" duration="189.00" routeLength="1993.45" waitingTime="3.00" waitingCount="2" stopTime="0.00" timeLoss="28.11" rerouteNo="1" devices="tripinfo_47 routing_47" vType="DEFAULT_VEHTYPE" speedFactor="0.90" vaporized=""/>
    <tripinfo id="26" depart="67.00" departLane="-E11_0" departPos="5.10" departSpeed="0.00" departDelay="0.44" arrival="312.00" arrivalLane="E5_0" arrivalPos="479.20" arrivalSpeed="11.48" duration="245.00" routeLength="2468.39" waitingTime="14.00" waitingCount="2" stopTime="0.00" timeLoss="47.79" rerouteNo="1" devices="tripinfo_26 routing_26" vType="DEFAULT_VEHTYPE" speedFactor="0.92" vaporized=""/>
    <tripinfo id="67" depart="172.00" departLane="E7_0" departPos="5.10" departSpeed="0.00" departDelay="0.48" arrival="313.00" arrivalLane="E4_0" arrivalPos="489.60" arrivalSpeed="11.82" duration="141.00" routeLength="1483.06" waitingTime="4.00" waitingCount="1" stopTime="0.00" timeLoss="23.00" rerouteNo="1" devices="tripinfo_67 routing_67" vType="DEFAULT_VEHTYPE" speedFactor="0.91" vaporized=""/>
    <tripinfo id="24" depart="62.00" departLane="-E3_0" departPos="5.10" departSpeed="0.00" departDelay="0.56" arrival="320.00" arrivalLane="E8_0" arrivalPos="489.60" arrivalSpeed="10.78" duration="258.00" routeLength="2480.15" waitingTime="13.00" waitingCount="2" stopTime="0.00" timeLoss="39.18" rerouteNo="1" devices="tripinfo_24 routing_24" vType="DEFAULT_VEHTYPE" speedFactor="0.83" vaporized=""/>
    <tripinfo id="94" depart="241.00" departLane="E7_0" departPos="5.10" departSpeed="0.00" departDelay="0.36" arrival="324.00" arrivalLane="E9_0" arrivalPos="489.60" arrivalSpeed="14.35" duration="83.00" routeLength="972.73" waitingTime="6.00" waitingCount="1" stopTime="0.00" timeLoss="17.62" rerouteNo="0" devices="tripinfo_94 routing_94" vType="DEFAULT_VEHTYPE" speedFactor="1.09" vaporized=""/>
    <tripinfo id="81" depart="208.00" departLane="E3_0" departPos="5.10" departSpeed="0.00" departDelay="0.64" arrival="325.00" arrivalLane="-E5_1" arrivalPos="479.20" arrivalSpeed="13.45" duration="117.00" routeLength="1450.56" waitingTime="0.00" waitingCount="0" stopTime="0.00" timeLoss="11.30" rerouteNo="1" devices="tripinfo_81 routing_81" vType="DEFAULT_VEHTYPE" speedFactor="1.00" vaporized=""/>
    <tripinfo id="75" depart="192.00" departLane="-E2_0" departPos="5.10" departSpeed="0.00" departDelay="0.00" arrival="326.00" arrivalLane="E4_0" arrivalPos="489.60" arrivalSpeed="13.08" duration="134.00" routeLength="1493.45" waitingTime="8.00" waitingCount="1" stopTime="0.00" timeLoss="24.03" rerouteNo="1" devices="tripinfo_75 routing_75" vType="DEFAULT_VEHTYPE" speedFactor="0.98" vaporized=""/>
    <tripinfo id="62" depart="159.00" departLane="E1_0" departPos="5.10" departSpeed="0.00" departDelay="0.28" arrival="332.00" arrivalLane="-E3_1" arrivalPos="479.20" arrivalSpeed="6.57" duration="173.00" routeLength="1969.76" waitingTime="3.00" waitingCount="1" stopTime="0.00" timeLoss="31.05" rerouteNo="1" devices="tripinfo_62 routing_62" vType="DEFAULT_VEHTYPE" speedFactor="1.02" vaporized=""/>
    <tripinfo id="82" depart="210.00" departLane="-E2_0" departPos="5.10" departSpeed="0.00" departDelay="0.08" arrival="333.00" arrivalLane="E11_0" arrivalPos="489.60" arrivalSpeed="13.81" duration="123.00" routeLength="1483.13" waitingTime="2.00" waitingCount="1" stopTime="0.00" timeLoss="17.52" rerouteNo="1" devices="tripinfo_82 routing_82" vType="DEFAULT_VEHTYPE" speedFactor="1.02" vaporized=""/>