<?xml version="1.0" encoding="UTF-8"?>

<!-- generated on 2026-02-03T16:43:16.749769+08:00 by Eclipse SUMO GUI 1.25.0
<sumoConfiguration xmlns:xsi="http://www.w3.org/2001/XMLSchema-instance" xsi:noNamespaceSchemaLocation="http://sumo.dlr.de/xsd/sumoConfiguration.xsd">

    <input>
        <net-file value="C:\Users\otaku\Documents\Thesis\apriori_civiq\scenarios\test_simple\final_map.net.xml"/>
        <route-files value="C:\Users\otaku\Documents\Thesis\apriori_civiq\scenarios\test_simple\trips_high.xml"/>
    </input>

    <output>
        <summary-output value="C:\Users\otaku\Documents\Thesis\apriori_civiq\scenarios\test_simple\data\data_selfish_high_summary.xml"/>
        <tripinfo-output value="C:\Users\otaku\Documents\Thesis\apriori_civiq\scenarios\test_simple\data\data_selfish_high_tripinfo.xml"/>
        <statistic-output value="C:\Users\otaku\Documents\Thesis\apriori_civiq\scenarios\test_simple\data\data_selfish_high_stats.xml"/>
    </output>

    <time>
        <begin value="0"/>
        <end value="3600"/>
    </time>

    <processing>
        <ignore-junction-blocker value="1"/>
        <time-to-teleport value="300"/>
    </processing>

    <report>
        <duration-log.statistics value="true"/>
    </report>

</sumoConfiguration>
-->

<tripinfos xmlns:xsi="http://www.w3.org/2001/XMLSchema-instance" xsi:noNamespaceSchemaLocation="http://sumo.dlr.de/xsd/tripinfo_file.xsd">
</tripinfos>
