<?xml version="1.0" encoding="UTF-8"?>

<!-- generated on 2026-03-09T14:24:44.090719+08:00 by Eclipse SUMO GUI 1.25.0
<sumoConfiguration xmlns:xsi="http://www.w3.org/2001/XMLSchema-instance" xsi:noNamespaceSchemaLocation="http://sumo.dlr.de/xsd/sumoConfiguration.xsd">

    <input>
        <net-file value="C:\Users\otaku\Documents\Thesis\apriori_civiq\scenarios\test_simple\final_map.net.xml"/>
        <route-files value="C:\Users\otaku\Documents\Thesis\apriori_civiq\scenarios\test_simple\routes_med.rou.xml"/>
    </input>

    <output>
        <summary-output value="C:\Users\otaku\Documents\Thesis\apriori_civiq\scenarios\test_simple\data\data_selfish_med_summary.xml"/>
        <tripinfo-output value="C:\Users\otaku\Documents\Thesis\apriori_civiq\scenarios\test_simple\data\data_selfish_med_tripinfo.xml"/>
        <statistic-output value="C:\Users\otaku\Documents\Thesis\apriori_civiq\scenarios\test_simple\data\data_selfish_med_stats.xml"/>
    </output>

    <time>
        <begin value="0"/>
        <end value="3600"/>
    </time>

    <processing>
        <ignore-junction-blocker value="1"/>
        <time-to-teleport value="300"/>
    </processing>

    <report>
        <duration-log.statistics value="true"/>
    </report>

</sumoConfiguration>
-->

<tripinfos xmlns:xsi="http://www.w3.org/2001/XMLSchema-instance" xsi:noNamespaceSchemaLocation="http://sumo.dlr.de/xsd/tripinfo_file.xsd">
    <tripinfo id="12" depart="39.00" departLane="E3_0" departPos="5.10" departSpeed="0.00" departDelay="0.60" arrival="77.00" arrivalLane="E3_0" arrivalPos="479.20" arrivalSpeed="13.69" duration="38.00" routeLength="474.10" waitingTime="0.00" waitingCount="0" stopTime="0.00" timeLoss="4.87" rerouteNo="0" devices="tripinfo_12" vType="DEFAULT_VEHTYPE" speedFactor="1.05" vaporized=""/>
    <tripinfo id="1" depart="4.00" departLane="E0_0" departPos="5.10" departSpeed="0.00" departDelay="0.80" arrival="88.00" arrivalLane="E4_0" arrivalPos="489.60" arrivalSpeed="12.93" duration="84.00" routeLength="983.13" waitingTime="0.00" waitingCount="0" stopTime="0.00" timeLoss="7.93" rerouteNo="0" devices="tripinfo_1" vType="DEFAULT_VEHTYPE" speedFactor="0.94" vaporized=""/>
    <tripinfo id="16" depart="52.00" departLane="E3_0" departPos="5.10" departSpeed="0.00" departDelay="0.80" arrival="96.00" arrivalLane="E3_0" arrivalPos="479.20" arrivalSpeed="11.20" duration="44.00" routeLength="474.10" waitingTime="0.00" waitingCount="0" stopTime="0.00" timeLoss="4.50" rerouteNo="0" devices="tripinfo_16" vType="DEFAULT_VEHTYPE" speedFactor="0.88" vaporized=""/>
    <tripinfo id="17" depart="55.00" departLane="E3_0" departPos="5.10" departSpeed="0.00" departDelay="0.60" arrival="96.00" arrivalLane="E3_1" arrivalPos="479.20" arrivalSpeed="12.46" duration="41.00" routeLength="474.10" waitingTime="0.00" waitingCount="0" stopTime="0.00" timeLoss="4.43" rerouteNo="0" devices="tripinfo_17" vType="DEFAULT_VEHTYPE" speedFactor="0.94" vaporized=""/>
    <tripinfo id="0" depart="0.00" departLane="-E9_0" departPos="5.10" departSpeed="0.00" departDelay="0.00" arrival="111.00" arrivalLane="-E0_0" arrivalPos="489.60" arrivalSpeed="14.42" duration="111.00" routeLength="1483.13" waitingTime="0.00" waitingCount="0" stopTime="0.00" timeLoss="9.05" rerouteNo="0" devices="tripinfo_0" vType="DEFAULT_VEHTYPE" speedFactor="1.06" vaporized=""/>
    <tripinfo id="8" depart="26.00" departLane="E1_0" departPos="5.10" departSpeed="0.00" departDelay="0.40" arrival="113.00" arrivalLane="E5_0" arrivalPos="479.20" arrivalSpeed="12.39" duration="87.00" routeLength="972.65" waitingTime="0.00" waitingCount="0" stopTime="0.00" timeLoss="11.37" rerouteNo="0" devices="tripinfo_8" vType="DEFAULT_VEHTYPE" speedFactor="0.94" vaporized=""/>
    <tripinfo id="13" depart="42.00" departLane="E1_0" departPos="5.10" departSpeed="0.00" departDelay="0.40" arrival="118.00" arrivalLane="E5_0" arrivalPos="479.20" arrivalSpeed="15.03" duration="76.00" routeLength="972.65" waitingTime="1.00" waitingCount="1" stopTime="0.00" timeLoss="12.40" rerouteNo="0" devices="tripinfo_13" vType="DEFAULT_VEHTYPE" speedFactor="1.12" vaporized=""/>
    <tripinfo id="15" depart="48.00" departLane="-E5_0" departPos="5.10" departSpeed="0.00" departDelay="0.00" arrival="133.00" arrivalLane="E2_0" arrivalPos="489.60" arrivalSpeed="12.27" duration="85.00" routeLength="983.05" waitingTime="0.00" waitingCount="0" stopTime="0.00" timeLoss="7.64" rerouteNo="0" devices="tripinfo_15" vType="DEFAULT_VEHTYPE" speedFactor="0.93" vaporized=""/>
    <tripinfo id="2" depart="7.00" departLane="-E5_0" departPos="5.10" departSpeed="0.00" departDelay="0.60" arrival="138.00" arrivalLane="-E0_0" arrivalPos="489.60" arrivalSpeed="13.79" duration="131.00" routeLength="1472.73" waitingTime="6.00" waitingCount="1" stopTime="0.00" timeLoss="24.55" rerouteNo="0" devices="tripinfo_2" vType="DEFAULT_VEHTYPE" speedFactor="1.01" vaporized=""/>
    <tripinfo id="6" depart="20.00" departLane="-E2_0" departPos="5.10" departSpeed="0.00" departDelay="0.80" arrival="141.00" arrivalLane="E3_1" arrivalPos="479.20" arrivalSpeed="13.34" duration="121.00" routeLength="1472.73" waitingTime="3.00" waitingCount="1" stopTime="0.00" timeLoss="18.94" rerouteNo="0" devices="tripinfo_6" vType="DEFAULT_VEHTYPE" speedFactor="1.05" vaporized=""/>
    <tripinfo id="20" depart="64.00" departLane="-E10_0" departPos="5.10" departSpeed="0.00" departDelay="0.00" arrival="143.00" arrivalLane="-E5_0" arrivalPos="479.20" arrivalSpeed="13.53" duration="79.00" routeLength="983.05" waitingTime="0.00" waitingCount="0" stopTime="0.00" timeLoss="7.73" rerouteNo="0" devices="tripinfo_20" vType="DEFAULT_VEHTYPE" speedFactor="1.02" vaporized=""/>
    <tripinfo id="37" depart="124.00" departLane="-E7_0" departPos="5.10" departSpeed="0.00" departDelay="5.60" arrival="158.00" arrivalLane="-E7_1" arrivalPos="479.20" arrivalSpeed="16.12" duration="34.00" routeLength="474.10" waitingTime="0.00" waitingCount="0" stopTime="0.00" timeLoss="4.99" rerouteNo="0" devices="tripinfo_37" vType="DEFAULT_VEHTYPE" speedFactor="1.18" vaporized=""/>
    <tripinfo id="11" depart="36.00" departLane="-E10_0" departPos="5.10" departSpeed="0.00" departDelay="0.80" arrival="160.00" arrivalLane="-E1_0" arrivalPos="479.20" arrivalSpeed="13.15" duration="124.00" routeLength="1471.28" waitingTime="5.00" waitingCount="1" stopTime="0.00" timeLoss="19.38" rerouteNo="0" devices="tripinfo_11" vType="DEFAULT_VEHTYPE" speedFactor="1.03" vaporized=""/>
    <tripinfo id="10" depart="32.00" departLane="E7_0" departPos="5.10" departSpeed="0.00" departDelay="0.00" arrival="168.00" arrivalLane="E1_1" arrivalPos="479.20" arrivalSpeed="14.21" duration="136.00" routeLength="1471.21" waitingTime="10.00" waitingCount="2" stopTime="0.00" timeLoss="37.45" rerouteNo="0" devices="tripinfo_10" vType="DEFAULT_VEHTYPE" speedFactor="1.09" vaporized=""/>
    <tripinfo id="39" depart="125.00" departLane="-E5_0" departPos="5.10" departSpeed="0.00" departDelay="0.20" arrival="168.00" arrivalLane="-E5_0" arrivalPos="479.20" arrivalSpeed="11.85" duration="43.00" routeLength="474.10" waitingTime="0.00" waitingCount="0" stopTime="0.00" timeLoss="4.32" rerouteNo="0" devices="tripinfo_39" vType="DEFAULT_VEHTYPE" speedFactor="0.90" vaporized=""/>
    <tripinfo id="27" depart="87.00" departLane="-E11_0" departPos="5.10" departSpeed="0.00" departDelay="0.60" arrival="174.00" arrivalLane="E10_0" arrivalPos="489.60" arrivalSpeed="12.37" duration="87.00" routeLength="993.45" waitingTime="0.00" waitingCount="0" stopTime="0.00" timeLoss="10.20" rerouteNo="0" devices="tripinfo_27" vType="DEFAULT_VEHTYPE" speedFactor="0.95" vaporized=""/>
    <tripinfo id="4" depart="13.00" departLane="-E1_0" departPos="5.10" departSpeed="0.00" departDelay="0.20" arrival="181.00" arrivalLane="-E5_1" arrivalPos="479.20" arrivalSpeed="13.50" duration="168.00" routeLength="1938.79" waitingTime="5.00" waitingCount="1" stopTime="0.00" timeLoss="29.78" rerouteNo="0" devices="tripinfo_4" vType="DEFAULT_VEHTYPE" speedFactor="1.03" vaporized=""/>
    <tripinfo id="46" depart="148.00" departLane="E7_0" departPos="5.10" departSpeed="0.00" departDelay="0.80" arrival="187.00" arrivalLane="E7_0" arrivalPos="479.20" arrivalSpeed="12.59" duration="39.00" routeLength="474.10" waitingTime="0.00" waitingCount="0" stopTime="0.00" timeLoss="4.44" rerouteNo="0" devices="tripinfo_46" vType="DEFAULT_VEHTYPE" speedFactor="1.00" vaporized=""/>
    <tripinfo id="28" depart="90.00" departLane="E7_0" departPos="5.10" departSpeed="0.00" departDelay="0.40" arrival="203.00" arrivalLane="E4_0" arrivalPos="489.60" arrivalSpeed="15.12" duration="113.00" routeLength="1483.06" waitingTime="1.00" waitingCount="1" stopTime="0.00" timeLoss="17.94" rerouteNo="0" devices="tripinfo_28" vType="DEFAULT_VEHTYPE" speedFactor="1.13" vaporized=""/>
    <tripinfo id="22" depart="71.00" departLane="-E9_0" departPos="5.10" departSpeed="0.00" departDelay="0.60" arrival="207.00" arrivalLane="E1_0" arrivalPos="479.20" arrivalSpeed="12.33" duration="136.00" routeLength="1483.05" waitingTime="7.00" waitingCount="1" stopTime="0.00" timeLoss="25.53" rerouteNo="0" devices="tripinfo_22" vType="DEFAULT_VEHTYPE" speedFactor="0.97" vaporized=""/>
    <tripinfo id="36" depart="116.00" departLane="E5_0" departPos="5.10" departSpeed="0.00" departDelay="0.80" arrival="207.00" arrivalLane="E11_0" arrivalPos="489.60" arrivalSpeed="12.93" duration="91.00" routeLength="984.50" waitingTime="5.00" waitingCount="1" stopTime="0.00" timeLoss="17.26" rerouteNo="0" devices="tripinfo_36" vType="DEFAULT_VEHTYPE" speedFactor="0.97" vaporized=""/>
    <tripinfo id="31" depart="100.00" departLane="-E2_0" departPos="5.10" departSpeed="0.00" departDelay="0.80" arrival="210.00" arrivalLane="-E0_0" arrivalPos="489.60" arrivalSpeed="16.02" duration="110.00" routeLength="1494.90" waitingTime="3.00" waitingCount="1" stopTime="0.00" timeLoss="16.77" rerouteNo="0" devices="tripinfo_31" vType="DEFAULT_VEHTYPE" speedFactor="1.15" vaporized=""/>
    <tripinfo id="5" depart="16.00" departLane="-E9_0" departPos="5.10" departSpeed="0.00" departDelay="0.00" arrival="214.00" arrivalLane="E2_0" arrivalPos="489.60" arrivalSpeed="11.09" duration="198.00" routeLength="1993.45" waitingTime="3.00" waitingCount="2" stopTime="0.00" timeLoss="24.11" rerouteNo="0" devices="tripinfo_5" vType="DEFAULT_VEHTYPE" speedFactor="0.83" vaporized=""/>
    <tripinfo id="19" depart="61.00" departLane="-E2_0" departPos="5.10" departSpeed="0.00" departDelay="0.20" arrival="221.00" arrivalLane="-E7_0" arrivalPos="479.20" arrivalSpeed="15.27" duration="160.00" routeLength="1960.96" waitingTime="10.00" waitingCount="2" stopTime="0.00" timeLoss="36.60" rerouteNo="0" devices="tripinfo_19" vType="DEFAULT_VEHTYPE" speedFactor="1.16" vaporized=""/>
    <tripinfo id="32" depart="103.00" departLane="-E4_0" departPos="5.10" departSpeed="0.00" departDelay="0.60" arrival="228.00" arrivalLane="-E7_0" arrivalPos="479.20" arrivalSpeed="13.66" duration="125.00" routeLength="1472.73" waitingTime="2.00" waitingCount="1" stopTime="0.00" timeLoss="18.17" rerouteNo="0" devices="tripinfo_32" vType="DEFAULT_VEHTYPE" speedFactor="1.01" vaporized=""/>
    <tripinfo id="35" depart="112.00" departLane="-E9_0" departPos="5.10" departSpeed="0.00" departDelay="0.00" arrival="228.00" arrivalLane="E10_0" arrivalPos="489.60" arrivalSpeed="12.99" duration="116.00" routeLength="1493.45" waitingTime="0.00" waitingCount="0" stopTime="0.00" timeLoss="9.83" rerouteNo="0" devices="tripinfo_35" vType="DEFAULT_VEHTYPE" speedFactor="1.02" vaporized=""/>
    <tripinfo id="3" depart="10.00" departLane="-E2_0" departPos="5.10" departSpeed="0.00" departDelay="0.40" arrival="232.00" arrivalLane="E2_0" arrivalPos="489.60" arrivalSpeed="14.37" duration="222.00" routeLength="2958.14" waitingTime="0.00" waitingCount="0" stopTime="0.00" timeLoss="22.36" rerouteNo="0" devices="tripinfo_3" vType="DEFAULT_VEHTYPE" speedFactor="1.08" vaporized=""/>
    <tripinfo id="51" depart="164.00" departLane="E5_0" departPos="5.10" departSpeed="0.00" departDelay="0.80" arrival="234.00" arrivalLane="E7_0" arrivalPos="479.20" arrivalSpeed="16.01" duration="70.00" routeLength="972.65" waitingTime="0.00" waitingCount="0" stopTime="0.00" timeLoss="8.79" rerouteNo="0" devices="tripinfo_51" vType="DEFAULT_VEHTYPE" speedFactor="1.17" vaporized=""/>
    <tripinfo id="30" depart="96.00" departLane="E3_0" departPos="5.10" departSpeed="0.00" departDelay="0.00" arrival="242.00" arrivalLane="E6_0" arrivalPos="489.60" arrivalSpeed="16.31" duration="146.00" routeLength="1960.96" waitingTime="1.00" waitingCount="1" stopTime="0.00" timeLoss="24.36" rerouteNo="0" devices="tripinfo_30" vType="DEFAULT_VEHTYPE" speedFactor="1.18" vaporized=""/>
    <tripinfo id="52" depart="167.00" departLane="-E3_0" departPos="5.10" departSpeed="0.00" departDelay="0.60" arrival="243.00" arrivalLane="E4_0" arrivalPos="489.60" arrivalSpeed="13.45" duration="76.00" routeLength="984.50" waitingTime="0.00" waitingCount="0" stopTime="0.00" timeLoss="5.87" rerouteNo="0" devices="tripinfo_52" vType="DEFAULT_VEHTYPE" speedFactor="1.02" vaporized=""/>
    <tripinfo id="48" depart="154.00" departLane="-E3_0" departPos="5.10" departSpeed="0.00" departDelay="0.40" arrival="247.00" arrivalLane="E4_0" arrivalPos="489.60" arrivalSpeed="11.06" duration="93.00" routeLength="984.50" waitingTime="1.00" waitingCount="1" stopTime="0.00" timeLoss="12.15" rerouteNo="0" devices="tripinfo_48" vType="DEFAULT_VEHTYPE" speedFactor="0.88" vaporized=""/>
    <tripinfo id="53" depart="170.00" departLane="-E8_0" departPos="5.10" departSpeed="0.00" departDelay="0.40" arrival="247.00" arrivalLane="-E3_0" arrivalPos="479.20" arrivalSpeed="13.92" duration="77.00" routeLength="972.73" waitingTime="1.00" waitingCount="1" stopTime="0.00" timeLoss="11.60" rerouteNo="0" devices="tripinfo_53" vType="DEFAULT_VEHTYPE" speedFactor="1.10" vaporized=""/>
    <tripinfo id="7" depart="23.00" departLane="E1_0" departPos="5.10" departSpeed="0.00" departDelay="0.60" arrival="251.00" arrivalLane="-E0_0" arrivalPos="489.60" arrivalSpeed="11.84" duration="228.00" routeLength="2468.39" waitingTime="0.00" waitingCount="0" stopTime="0.00" timeLoss="23.82" rerouteNo="0" devices="tripinfo_7" vType="DEFAULT_VEHTYPE" speedFactor="0.89" vaporized=""/>
    <tripinfo id="65" depart="208.00" departLane="-E5_0" departPos="5.10" departSpeed="0.00" departDelay="0.00" arrival="252.00" arrivalLane="-E5_1" arrivalPos="479.20" arrivalSpeed="11.99" duration="44.00" routeLength="474.10" waitingTime="0.00" waitingCount="0" stopTime="0.00" timeLoss="4.63" rerouteNo="0" devices="tripinfo_65" vType="DEFAULT_VEHTYPE" speedFactor="0.88" vaporized=""/>
    <tripinfo id="23" depart="74.00" departLane="-E4_0" departPos="5.10" departSpeed="0.00" departDelay="0.40" arrival="254.00" arrivalLane="-E5_1" arrivalPos="479.20" arrivalSpeed="11.76" duration="180.00" routeLength="1960.96" waitingTime="2.00" waitingCount="1" stopTime="0.00" timeLoss="19.93" rerouteNo="0" devices="tripinfo_23" vType="DEFAULT_VEHTYPE" speedFactor="0.89" vaporized=""/>
    <tripinfo id="55" depart="176.00" departLane="E1_0" departPos="5.10" departSpeed="0.00" departDelay="0.00" arrival="255.00" arrivalLane="E2_0" arrivalPos="489.60" arrivalSpeed="13.36" duration="79.00" routeLength="984.50" waitingTime="0.00" waitingCount="0" stopTime="0.00" timeLoss="7.52" rerouteNo="0" devices="tripinfo_55" vType="DEFAULT_VEHTYPE" speedFactor="1.00" vaporized=""/>
    <tripinfo id="57" depart="183.00" departLane="E5_0" departPos="5.10" departSpeed="0.00" departDelay="0.60" arrival="256.00" arrivalLane="E7_0" arrivalPos="479.20" arrivalSpeed="15.30" duration="73.00" routeLength="972.65" waitingTime="0.00" waitingCount="0" stopTime="0.00" timeLoss="10.57" rerouteNo="0" devices="tripinfo_57" vType="DEFAULT_VEHTYPE" speedFactor="1.14" vaporized=""/>
    <tripinfo id="54" depart="173.00" departLane="E1_0" departPos="5.10" departSpeed="0.00" departDelay="0.20" arrival="257.00" arrivalLane="E2_0" arrivalPos="489.60" arrivalSpeed="13.11" duration="84.00" routeLength="984.50" waitingTime="1.00" waitingCount="1" stopTime="0.00" timeLoss="12.80" rerouteNo="0" devices="tripinfo_54" vType="DEFAULT_VEHTYPE" speedFactor="1.00" vaporized=""/>
    <tripinfo id="14" depart="45.00" departLane="-E7_0" departPos="5.10" departSpeed="0.00" departDelay="0.20" arrival="259.00" arrivalLane="E9_0" arrivalPos="489.60" arrivalSpeed="12.69" duration="214.00" routeLength="2449.19" waitingTime="5.00" waitingCount="2" stopTime="0.00" timeLoss="33.80" rerouteNo="0" devices="tripinfo_14" vType="DEFAULT_VEHTYPE" speedFactor="0.99" vaporized=""/>
    <tripinfo id="43" depart="138.00" departLane="E1_0" departPos="5.10" departSpeed="0.00" departDelay="0.40" arrival="259.00" arrivalLane="E10_0" arrivalPos="489.60" arrivalSpeed="13.38" duration="121.00" routeLength="1471.28" waitingTime="3.00" waitingCount="1" stopTime="0.00" timeLoss="17.32" rerouteNo="0" devices="tripinfo_43" vType="DEFAULT_VEHTYPE" speedFactor="1.04" vaporized=""/>
    <tripinfo id="58" depart="186.00" departLane="-E3_0" departPos="5.10" departSpeed="0.00" departDelay="0.40" arrival="264.00" arrivalLane="-E0_0" arrivalPos="489.60" arrivalSpeed="13.74" duration="78.00" routeLength="972.73" waitingTime="0.00" waitingCount="0" stopTime="0.00" timeLoss="8.34" rerouteNo="0" devices="tripinfo_58" vType="DEFAULT_VEHTYPE" speedFactor="1.02" vaporized=""/>
    <tripinfo id="60" depart="192.00" departLane="-E10_0" departPos="5.10" departSpeed="0.00" departDelay="0.00" arrival="266.00" arrivalLane="E11_0" arrivalPos="489.60" arrivalSpeed="14.55" duration="74.00" routeLength="983.13" waitingTime="0.00" waitingCount="0" stopTime="0.00" timeLoss="7.72" rerouteNo="0" devices="tripinfo_60" vType="DEFAULT_VEHTYPE" speedFactor="1.08" vaporized=""/>
    <tripinfo id="33" depart="106.00" departLane="-E2_0" departPos="5.10" departSpeed="0.00" departDelay="0.40" arrival="271.00" arrivalLane="E9_0" arrivalPos="489.60" arrivalSpeed="15.00" duration="165.00" routeLength="1983.13" waitingTime="17.00" waitingCount="3" stopTime="0.00" timeLoss="42.17" rerouteNo="0" devices="tripinfo_33" vType="DEFAULT_VEHTYPE" speedFactor="1.17" vaporized=""/>
    <tripinfo id="9" depart="29.00" departLane="-E4_0" departPos="5.10" departSpeed="0.00" departDelay="0.20" arrival="276.00" arrivalLane="-E3_0" arrivalPos="479.20" arrivalSpeed="10.85" duration="247.00" routeLength="2468.39" waitingTime="11.00" waitingCount="2" stopTime="0.00" timeLoss="35.93" rerouteNo="0" devices="tripinfo_9" vType="DEFAULT_VEHTYPE" speedFactor="0.86" vaporized=""/>
    <tripinfo id="29" depart="93.00" departLane="-E7_0" departPos="5.10" departSpeed="0.00" departDelay="0.20" arrival="276.00" arrivalLane="E4_0" arrivalPos="489.60" arrivalSpeed="12.57" duration="183.00" routeLength="1959.51" waitingTime="5.00" waitingCount="2" stopTime="0.00" timeLoss="29.49" rerouteNo="0" devices="tripinfo_29" vType="DEFAULT_VEHTYPE" speedFactor="0.93" vaporized=""/>
    <tripinfo id="21" depart="68.00" departLane="-E10_0" departPos="5.10" departSpeed="0.00" departDelay="0.80" arrival="277.00" arrivalLane="-E7_0" arrivalPos="479.20" arrivalSpeed="13.51" duration="209.00" routeLength="2447.74" waitingTime="6.00" waitingCount="1" stopTime="0.00" timeLoss="31.63" rerouteNo="0" devices="tripinfo_21" vType="DEFAULT_VEHTYPE" speedFactor="1.01" vaporized=""/>
    <tripinfo id="34" depart="109.00" departLane="E5_0" departPos="5.10" departSpeed="0.00" departDelay="0.20" arrival="278.00" arrivalLane="E1_0" arrivalPos="479.20" arrivalSpeed="13.23" duration="169.00" routeLength="1969.76" waitingTime="2.00" waitingCount="1" stopTime="0.00" timeLoss="24.22" rerouteNo="0" devices="tripinfo_34" vType="DEFAULT_VEHTYPE" speedFactor="0.99" vaporized=""/>
    <tripinfo id="63" depart="202.00" departLane="-E6_0" departPos="5.10" departSpeed="0.00" departDelay="0.40" arrival="284.00" arrivalLane="E2_0" arrivalPos="489.60" arrivalSpeed="12.97" duration="82.00" routeLength="983.13" waitingTime="0.00" waitingCount="0" stopTime="0.00" timeLoss="8.39" rerouteNo="0" devices="tripinfo_63" vType="DEFAULT_VEHTYPE" speedFactor="0.99" vaporized=""/>
    <tripinfo id="42" depart="135.00" departLane="-E10_0" departPos="5.10" departSpeed="0.00" departDelay="0.60" arrival="291.00" arrivalLane="E4_0" arrivalPos="489.60" arrivalSpeed="15.16" duration="156.00" routeLength="1993.46" waitingTime="1.00" waitingCount="1" stopTime="0.00" timeLoss="24.00" rerouteNo="0" devices="tripinfo_42" vType="DEFAULT_VEHTYPE" speedFactor="1.09" vaporized=""/>
    <tripinfo id="68" depart="218.00" departLane="-E6_0" departPos="5.10" departSpeed="0.00" departDelay="0.40" arrival="295.00" arrivalLane="E2_0" arrivalPos="489.60" arrivalSpeed="14.15" duration="77.00" routeLength="983.13" waitingTime="0.00" waitingCount="0" stopTime="0.00" timeLoss="8.31" rerouteNo="0" devices="tripinfo_68" vType="DEFAULT_VEHTYPE" speedFactor="1.04" vaporized=""/>
    <tripinfo id="69" depart="221.00" departLane="-E10_0" departPos="5.10" departSpeed="0.00" departDelay="0.20" arrival="300.00" arrivalLane="-E5_0" arrivalPos="479.20" arrivalSpeed="13.09" duration="79.00" routeLength="983.05" waitingTime="0.00" waitingCount="0" stopTime="0.00" timeLoss="8.95" rerouteNo="0" devices="tripinfo_69" vType="DEFAULT_VEHTYPE" speedFactor="1.02" vaporized=""/>
    <tripinfo id="40" depart="128.00" departLane="E7_0" departPos="5.10" departSpeed="0.00" departDelay="0.00" arrival="302.00" arrivalLane="E2_0" arrivalPos="489.60" arrivalSpeed="13.35" duration="174.00" routeLength="1981.61" waitingTime="6.00" waitingCount="3" stopTime="0.00" timeLoss="34.24" rerouteNo="0" devices="tripinfo_40" vType="DEFAULT_VEHTYPE" speedFactor="1.03" vaporized=""/>
    <tripinfo id="45" depart="144.00" departLane="E7_0" departPos="5.10" departSpeed="0.00" departDelay="0.00" arrival="302.00" arrivalLane="E2_1" arrivalPos="489.60" arrivalSpeed="14.93" duration="158.00" routeLength="1981.61" waitingTime="0.00" waitingCount="0" stopTime="0.00" timeLoss="24.89" rerouteNo="0" devices="tripinfo_45" vType="DEFAULT_VEHTYPE" speedFactor="1.09" vaporized=""/>
    <tripinfo id="61" depart="196.00" departLane="-E10_0" departPos="5.10" departSpeed="0.00" departDelay="0.80" arrival="305.00" arrivalLane="E6_0" arrivalPos="489.60" arrivalSpeed="14.48" duration="109.00" routeLength="1493.45" waitingTime="0.00" waitingCount="0" stopTime="0.00" timeLoss="11.73" rerouteNo="0" devices="tripinfo_61" vType="DEFAULT_VEHTYPE" speedFactor="1.12" vaporized=""/>
    <tripinfo id="41" depart="132.00" departLane="-E10_0" departPos="5.10" departSpeed="0.00" departDelay="0.80" arrival="306.00" arrivalLane="-E0_0" arrivalPos="489.60" arrivalSpeed="12.93" duration="174.00" routeLength="1981.68" waitingTime="6.00" waitingCount="1" stopTime="0.00" timeLoss="22.87" rerouteNo="0" devices="tripinfo_41" vType="DEFAULT_VEHTYPE" speedFactor="0.96" vaporized=""/>
    <tripinfo id="26" depart="84.00" departLane="-E11_0" departPos="5.10" departSpeed="0.00" departDelay="0.80" arrival="309.00" arrivalLane="E5_0" arrivalPos="479.20" arrivalSpeed="11.80" duration="225.00" routeLength="2468.39" waitingTime="3.00" waitingCount="1" stopTime="0.00" timeLoss="27.80" rerouteNo="0" devices="tripinfo_26" vType="DEFAULT_VEHTYPE" speedFactor="0.92" vaporized=""/>
    <tripinfo id="70" depart="224.00" departLane="-E4_0" departPos="5.10" departSpeed="0.00" departDelay="0.00" arrival="310.00" arrivalLane="E3_0" arrivalPos="479.20" arrivalSpeed="14.20" duration="86.00" routeLength="984.50" waitingTime="4.00" waitingCount="1" stopTime="0.00" timeLoss="16.24" rerouteNo="0" devices="tripinfo_70" vType="DEFAULT_VEHTYPE" speedFactor="1.02" vaporized=""/>
    <tripinfo id="87" depart="279.00" departLane="E7_0" departPos="5.10" departSpeed="0.00" departDelay="0.60" arrival="317.00" arrivalLane="E7_0" arrivalPos="479.20" arrivalSpeed="14.31" duration="38.00" routeLength="474.10" waitingTime="0.00" waitingCount="0" stopTime="0.00" timeLoss="4.51" rerouteNo="0" devices="tripinfo_87" vType="DEFAULT_VEHTYPE" speedFactor="1.04" vaporized=""/>
    <tripinfo id="56" depart="180.00" departLane="-E1_0" departPos="5.10" departSpeed="0.00" departDelay="0.80" arrival="328.00" arrivalLane="E8_0" arrivalPos="489.60" arrivalSpeed="12.29" duration="148.00" routeLength="1471.28" waitingTime="11.00" waitingCount="2" stopTime="0.00" timeLoss="28.16" rerouteNo="0" devices="tripinfo_56" vType="DEFAULT_VEHTYPE" speedFactor="0.90" vaporized=""/>
    <tripinfo id="59" depart="189.00" departLane="E5_0" departPos="5.10" departSpeed="0.00" departDelay="0.20" arrival="333.00" arrivalLane="E9_0" arrivalPos="489.60" arrivalSpeed="13.42" duration="144.00" routeLength="1471.28" waitingTime="8.00" waitingCount="2" stopTime="0.00" timeLoss="32.80" rerouteNo="0" devices="tripinfo_59" vType="DEFAULT_VEHTYPE" speedFactor="0.97" vaporized=""/>
    <tripinfo id="80" depart="256.00" departLane="E0_0" departPos="5.10" departSpeed="0.00" departDelay="0.00" arrival="335.00" arrivalLane="E4_0" arrivalPos="489.60" arrivalSpeed="14.33" duration="79.00" routeLength="983.13" waitingTime="0.00" waitingCount="0" stopTime="0.00" timeLoss="9.86" rerouteNo="0" devices="tripinfo_80" vType="DEFAULT_VEHTYPE" speedFactor="1.03" vaporized=""/>
    <tripinfo id="24" depart="77.00" departLane="-E3_0" departPos="5.10" departSpeed="0.00" departDelay="0.20" arrival="340.00" arrivalLane="E8_0" arrivalPos="489.60" arrivalSpeed="10.50" duration="263.00" routeLength="2480.15" waitingTime="9.00" waitingCount="3" stopTime="0.00" timeLoss="43.39" rerouteNo="0" devices="tripinfo_24" vType="DEFAULT_VEHTYPE" speedFactor="0.83" vaporized=""/>
    <tripinfo id="18" depart="58.00" departLane="E0_0" departPos="5.10" departSpeed="0.00" departDelay="0.40" arrival="341.00" arrivalLane="-E0_0" arrivalPos="489.60" arrivalSpeed="12.95" duration="283.00" routeLength="2958.14" waitingTime="13.00" waitingCount="3" stopTime="0.00" timeLoss="52.11" rerouteNo="0" devices="tripinfo_18" vType="DEFAULT_VEHTYPE" speedFactor="0.94" vaporized=""/>
    <tripinfo id="47" depart="151.00" departLane="-E9_0" departPos="5.10" departSpeed="0.00" departDelay="0.60" arrival="341.00" arrivalLane="E2_0" arrivalPos="489.60" arrivalSpeed="11.88" duration="190.00" routeLength="1993.45" waitingTime="8.00" waitingCount="2" stopTime="0.00" timeLoss="30.09" rerouteNo="0" devices="tripinfo_47" vType="DEFAULT_VEHTYPE" speedFactor="0.90" vaporized=""/>
    <tripinfo id="25" depart="80.00" departLane="-E9_0" departPos="5.10" departSpeed="0.00" departDelay="0.00" arrival="342.00" arrivalLane="E3_0" arrivalPos="479.20" arrivalSpeed="10.90" duration="262.00" routeLength="2447.74" waitingTime="21.00" waitingCount="4" stopTime="0.00" timeLoss="56.52" rerouteNo="0" devices="tripinfo_25" vType="DEFAULT_VEHTYPE" speedFactor="0.87" vaporized=""/>
    <tripinfo id="50" depart="160.00" departLane="-E6_0" departPos="5.10" departSpeed="0.00" departDelay="0.00" arrival="354.00" arrivalLane="E9_0" arrivalPos="489.60" arrivalSpeed="11.43" duration="194.00" routeLength="1981.68" waitingTime="3.00" waitingCount="1" stopTime="0.00" timeLoss="24.86" rerouteNo="0" devices="tripinfo_50" vType="DEFAULT_VEHTYPE" speedFactor="0.85" vaporized=""/>
    <tripinfo id="67" depart="215.00" departLane="E7_0" departPos="5.10" departSpeed="0.00" departDelay="0.60" arrival="356.00" arrivalLane="E4_0" arrivalPos="489.60" arrivalSpeed="12.69" duration="141.00" routeLength="1483.06" waitingTime="6.00" waitingCount="1" stopTime="0.00" timeLoss="23.36" rerouteNo="0" devices="tripinfo_67" vType="DEFAULT_VEHTYPE" speedFactor="0.91" vaporized=""/>
    <tripinfo id="75" depart="240.00" departLane="-E2_0" departPos="5.10" departSpeed="0.00" departDelay="0.00" arrival="361.00" arrivalLane="E4_0" arrivalPos="489.60" arrivalSpeed="12.82" duration="121.00" routeLength="1493.45" waitingTime="0.00" waitingCount="0" stopTime="0.00" timeLoss="10.45" rerouteNo="0" devices="tripinfo_75" vType="DEFAULT_VEHTYPE" speedFactor="0.98" vaporized=""/>
    <tripinfo id="62" depart="199.00" departLane="E1_0" departPos="5.10" departSpeed="0.00" departDelay="0.60" arrival="363.00" arrivalLane="-E3_0" arrivalPos="479.20" arrivalSpeed="13.53" duration="164.00" routeLength="1969.76" waitingTime="5.00" waitingCount="1" stopTime="0.00" timeLoss="22.33" rerouteNo="0" devices="tripinfo_62" vType="DEFAULT_VEHTYPE" speedFactor="1.02" vaporized=""/>
    <tripinfo id="88" depart="282.00" departLane="E7_0" departPos="5.10" departSpeed="0.00" departDelay="0.40" arrival="365.00" arrivalLane="E8_0" arrivalPos="489.60" arrivalSpeed="13.07" duration="83.00" routeLength="984.50" waitingTime="1.00" waitingCount="1" stopTime="0.00" timeLoss="11.80" rerouteNo="0" devices="tripinfo_88" vType="DEFAULT_VEHTYPE" speedFactor="1.01" vaporized=""/>
    <tripinfo id="38" depart="122.00" departLane="-E8_0" departPos="5.10" departSpeed="0.00" departDelay="0.40" arrival="374.00" arrivalLane="E8_0" arrivalPos="489.60" arrivalSpeed="14.38" duration="252.00" routeLength="2958.14" waitingTime="8.00" waitingCount="2" stopTime="0.00" timeLoss="56.23" rerouteNo="0" devices="tripinfo_38" vType="DEFAULT_VEHTYPE" speedFactor="1.10" vaporized=""/>
    <tripinfo id="82" depart="263.00" departLane="-E2_0" departPos="5.10" departSpeed="0.00" departDelay="0.60" arrival="378.00" arrivalLane="E11_0" arrivalPos="489.60" arrivalSpeed="12.94" duration="115.00" routeLength="1483.13" waitingTime="0.00" waitingCount="0" stopTime="0.00" timeLoss="9.47" rerouteNo="0" devices="tripinfo_82" vType="DEFAULT_VEHTYPE" speedFactor="1.02" vaporized=""/>
    <tripinfo id="94" depart="301.00" departLane="E7_0" departPos="5.10" departSpeed="0.00" departDelay="0.20" arrival="379.00" arrivalLane="E9_0" arrivalPos="489.60" arrivalSpeed="14.08" duration="78.00" routeLength="972.73" waitingTime="1.00" waitingCount="1" stopTime="0.00" timeLoss="13.15" rerouteNo="0" devices="tripinfo_94" vType="DEFAULT_VEHTYPE" speedFactor="1.09" vaporized=""/>