<?xml version="1.0" encoding="UTF-8"?>

<!-- generated on 2026-01-14T14:13:03.712316+08:00 by Eclipse SUMO GUI 1.25.0
<sumoConfiguration xmlns:xsi="http://www.w3.org/2001/XMLSchema-instance" xsi:noNamespaceSchemaLocation="http://sumo.dlr.de/xsd/sumoConfiguration.xsd">

    <input>
        <net-file value="C:\Users\ASUS\Documents\SUMO_Networks\scenarios\test_simple_2lanes\final_map.net.xml"/>
        <route-files value="C:\Users\ASUS\Documents\SUMO_Networks\scenarios\test_simple_2lanes\trips_low.xml"/>
    </input>

    <output>
        <summary-output value="C:\Users\ASUS\Documents\SUMO_Networks\scenarios\test_simple_2lanes\data\data_selfish_low_summary.xml"/>
        <tripinfo-output value="C:\Users\ASUS\Documents\SUMO_Networks\scenarios\test_simple_2lanes\data\data_selfish_low_tripinfo.xml"/>
        <statistic-output value="C:\Users\ASUS\Documents\SUMO_Networks\scenarios\test_simple_2lanes\data\data_selfish_low_stats.xml"/>
    </output>

    <time>
        <begin value="0"/>
        <end value="3600"/>
    </time>

    <processing>
        <ignore-junction-blocker value="1"/>
        <time-to-teleport value="300"/>
    </processing>

    <report>
        <duration-log.statistics value="true"/>
    </report>

</sumoConfiguration>
-->

<tripinfos xmlns:xsi="http://www.w3.org/2001/XMLSchema-instance" xsi:noNamespaceSchemaLocation="http://sumo.dlr.de/xsd/tripinfo_file.xsd">
    <tripinfo id="1" depart="7.00" departLane="E0_0" departPos="5.10" departSpeed="0.00" departDelay="0.60" arrival="98.00" arrivalLane="E4_0" arrivalPos="489.60" arrivalSpeed="12.93" duration="91.00" routeLength="983.13" waitingTime="3.00" waitingCount="1" stopTime="0.00" timeLoss="14.81" rerouteNo="0" devices="tripinfo_1 routing_1" vType="DEFAULT_VEHTYPE" speedFactor="0.94" vaporized=""/>
    <tripinfo id="12" depart="77.00" departLane="E3_0" departPos="5.10" departSpeed="0.00" departDelay="0.20" arrival="114.00" arrivalLane="E3_1" arrivalPos="479.20" arrivalSpeed="13.75" duration="37.00" routeLength="474.10" waitingTime="0.00" waitingCount="0" stopTime="0.00" timeLoss="4.38" rerouteNo="1" devices="tripinfo_12 routing_12" vType="DEFAULT_VEHTYPE" speedFactor="1.05" vaporized=""/>
    <tripinfo id="0" depart="0.00" departLane="-E9_0" departPos="5.10" departSpeed="0.00" departDelay="0.00" arrival="119.00" arrivalLane="-E0_0" arrivalPos="489.60" arrivalSpeed="14.69" duration="119.00" routeLength="1483.13" waitingTime="4.00" waitingCount="1" stopTime="0.00" timeLoss="16.67" rerouteNo="1" devices="tripinfo_0 routing_0" vType="DEFAULT_VEHTYPE" speedFactor="1.06" vaporized=""/>
    <tripinfo id="8" depart="52.00" departLane="E1_0" departPos="5.10" departSpeed="0.00" departDelay="0.80" arrival="142.00" arrivalLane="E5_0" arrivalPos="479.20" arrivalSpeed="12.87" duration="90.00" routeLength="972.65" waitingTime="2.00" waitingCount="1" stopTime="0.00" timeLoss="14.01" rerouteNo="0" devices="tripinfo_8 routing_8" vType="DEFAULT_VEHTYPE" speedFactor="0.94" vaporized=""/>
    <tripinfo id="2" depart="13.00" departLane="-E5_0" departPos="5.10" departSpeed="0.00" departDelay="0.20" arrival="144.00" arrivalLane="-E0_0" arrivalPos="489.60" arrivalSpeed="13.79" duration="131.00" routeLength="1472.73" waitingTime="6.00" waitingCount="1" stopTime="0.00" timeLoss="25.46" rerouteNo="1" devices="tripinfo_2 routing_2" vType="DEFAULT_VEHTYPE" speedFactor="1.01" vaporized=""/>
    <tripinfo id="16" depart="103.00" departLane="E3_0" departPos="5.10" departSpeed="0.00" departDelay="0.60" arrival="148.00" arrivalLane="E3_0" arrivalPos="479.20" arrivalSpeed="11.10" duration="45.00" routeLength="474.10" waitingTime="0.00" waitingCount="0" stopTime="0.00" timeLoss="5.28" rerouteNo="1" devices="tripinfo_16 routing_16" vType="DEFAULT_VEHTYPE" speedFactor="0.88" vaporized=""/>
    <tripinfo id="17" depart="110.00" departLane="E3_0" departPos="5.10" departSpeed="0.00" departDelay="1.20" arrival="151.00" arrivalLane="E3_0" arrivalPos="479.20" arrivalSpeed="12.85" duration="41.00" routeLength="474.10" waitingTime="0.00" waitingCount="0" stopTime="0.00" timeLoss="4.74" rerouteNo="1" devices="tripinfo_17 routing_17" vType="DEFAULT_VEHTYPE" speedFactor="0.94" vaporized=""/>
    <tripinfo id="6" depart="39.00" departLane="-E2_0" departPos="5.10" departSpeed="0.00" departDelay="0.60" arrival="157.00" arrivalLane="E3_0" arrivalPos="479.20" arrivalSpeed="14.25" duration="118.00" routeLength="1472.73" waitingTime="1.00" waitingCount="1" stopTime="0.00" timeLoss="15.58" rerouteNo="1" devices="tripinfo_6 routing_6" vType="DEFAULT_VEHTYPE" speedFactor="1.05" vaporized=""/>
    <tripinfo id="13" depart="84.00" departLane="E1_0" departPos="5.10" departSpeed="0.00" departDelay="0.80" arrival="164.00" arrivalLane="E5_0" arrivalPos="479.20" arrivalSpeed="15.15" duration="80.00" routeLength="972.65" waitingTime="5.00" waitingCount="1" stopTime="0.00" timeLoss="16.62" rerouteNo="0" devices="tripinfo_13 routing_13" vType="DEFAULT_VEHTYPE" speedFactor="1.12" vaporized=""/>
    <tripinfo id="10" depart="64.00" departLane="E7_0" departPos="5.10" departSpeed="0.00" departDelay="0.00" arrival="181.00" arrivalLane="E1_0" arrivalPos="479.20" arrivalSpeed="13.96" duration="117.00" routeLength="1471.21" waitingTime="2.00" waitingCount="1" stopTime="0.00" timeLoss="18.47" rerouteNo="1" devices="tripinfo_10 routing_10" vType="DEFAULT_VEHTYPE" speedFactor="1.09" vaporized=""/>
    <tripinfo id="15" depart="96.00" departLane="-E5_0" departPos="5.10" departSpeed="0.00" departDelay="0.00" arrival="181.00" arrivalLane="E2_0" arrivalPos="489.60" arrivalSpeed="12.27" duration="85.00" routeLength="983.05" waitingTime="0.00" waitingCount="0" stopTime="0.00" timeLoss="7.71" rerouteNo="0" devices="tripinfo_15 routing_15" vType="DEFAULT_VEHTYPE" speedFactor="0.93" vaporized=""/>
    <tripinfo id="11" depart="71.00" departLane="-E10_0" departPos="5.10" departSpeed="0.00" departDelay="0.60" arrival="191.00" arrivalLane="-E1_0" arrivalPos="479.20" arrivalSpeed="13.84" duration="120.00" routeLength="1471.28" waitingTime="2.00" waitingCount="1" stopTime="0.00" timeLoss="14.67" rerouteNo="1" devices="tripinfo_11 routing_11" vType="DEFAULT_VEHTYPE" speedFactor="1.03" vaporized=""/>
    <tripinfo id="4" depart="26.00" departLane="-E1_0" departPos="5.10" departSpeed="0.00" departDelay="0.40" arrival="193.00" arrivalLane="-E5_0" arrivalPos="479.20" arrivalSpeed="13.02" duration="167.00" routeLength="1938.79" waitingTime="5.00" waitingCount="2" stopTime="0.00" timeLoss="29.23" rerouteNo="1" devices="tripinfo_4 routing_4" vType="DEFAULT_VEHTYPE" speedFactor="1.03" vaporized=""/>
    <tripinfo id="20" depart="128.00" departLane="-E10_0" departPos="5.10" departSpeed="0.00" departDelay="0.00" arrival="211.00" arrivalLane="-E5_0" arrivalPos="479.20" arrivalSpeed="13.14" duration="83.00" routeLength="983.05" waitingTime="1.00" waitingCount="1" stopTime="0.00" timeLoss="11.91" rerouteNo="0" devices="tripinfo_20 routing_20" vType="DEFAULT_VEHTYPE" speedFactor="1.02" vaporized=""/>
    <tripinfo id="5" depart="32.00" departLane="-E9_0" departPos="5.10" departSpeed="0.00" departDelay="0.00" arrival="225.00" arrivalLane="E2_0" arrivalPos="489.60" arrivalSpeed="11.09" duration="193.00" routeLength="1993.45" waitingTime="1.00" waitingCount="1" stopTime="0.00" timeLoss="19.34" rerouteNo="1" devices="tripinfo_5 routing_5" vType="DEFAULT_VEHTYPE" speedFactor="0.83" vaporized=""/>
    <tripinfo id="27" depart="173.00" departLane="-E11_0" departPos="5.10" departSpeed="0.00" departDelay="0.20" arrival="258.00" arrivalLane="E10_0" arrivalPos="489.60" arrivalSpeed="12.72" duration="85.00" routeLength="993.45" waitingTime="0.00" waitingCount="0" stopTime="0.00" timeLoss="8.69" rerouteNo="0" devices="tripinfo_27 routing_27" vType="DEFAULT_VEHTYPE" speedFactor="0.95" vaporized=""/>
    <tripinfo id="22" depart="141.00" departLane="-E9_0" departPos="5.10" departSpeed="0.00" departDelay="0.20" arrival="265.00" arrivalLane="E1_0" arrivalPos="479.20" arrivalSpeed="12.99" duration="124.00" routeLength="1483.05" waitingTime="2.00" waitingCount="1" stopTime="0.00" timeLoss="13.54" rerouteNo="1" devices="tripinfo_22 routing_22" vType="DEFAULT_VEHTYPE" speedFactor="0.97" vaporized=""/>
    <tripinfo id="3" depart="20.00" departLane="-E2_0" departPos="5.10" departSpeed="0.00" departDelay="0.80" arrival="266.00" arrivalLane="E2_0" arrivalPos="489.60" arrivalSpeed="14.14" duration="246.00" routeLength="2958.14" waitingTime="5.00" waitingCount="2" stopTime="0.00" timeLoss="46.76" rerouteNo="1" devices="tripinfo_3 routing_3" vType="DEFAULT_VEHTYPE" speedFactor="1.08" vaporized=""/>
    <tripinfo id="19" depart="122.00" departLane="-E2_0" departPos="5.10" departSpeed="0.00" departDelay="0.40" arrival="274.00" arrivalLane="-E7_1" arrivalPos="479.20" arrivalSpeed="15.55" duration="152.00" routeLength="1960.96" waitingTime="1.00" waitingCount="1" stopTime="0.00" timeLoss="28.62" rerouteNo="1" devices="tripinfo_19 routing_19" vType="DEFAULT_VEHTYPE" speedFactor="1.16" vaporized=""/>
    <tripinfo id="37" depart="244.00" departLane="-E7_0" departPos="5.10" departSpeed="0.00" departDelay="7.20" arrival="278.00" arrivalLane="-E7_1" arrivalPos="479.20" arrivalSpeed="15.92" duration="34.00" routeLength="474.10" waitingTime="0.00" waitingCount="0" stopTime="0.00" timeLoss="4.63" rerouteNo="1" devices="tripinfo_37 routing_37" vType="DEFAULT_VEHTYPE" speedFactor="1.18" vaporized=""/>
    <tripinfo id="7" depart="45.00" departLane="E1_0" departPos="5.10" departSpeed="0.00" departDelay="0.20" arrival="285.00" arrivalLane="-E0_0" arrivalPos="489.60" arrivalSpeed="11.64" duration="240.00" routeLength="2468.39" waitingTime="8.00" waitingCount="3" stopTime="0.00" timeLoss="36.55" rerouteNo="1" devices="tripinfo_7 routing_7" vType="DEFAULT_VEHTYPE" speedFactor="0.89" vaporized=""/>
    <tripinfo id="39" depart="250.00" departLane="-E5_0" departPos="5.10" departSpeed="0.00" departDelay="0.40" arrival="293.00" arrivalLane="-E5_0" arrivalPos="479.20" arrivalSpeed="11.96" duration="43.00" routeLength="474.10" waitingTime="0.00" waitingCount="0" stopTime="0.00" timeLoss="4.54" rerouteNo="1" devices="tripinfo_39 routing_39" vType="DEFAULT_VEHTYPE" speedFactor="0.90" vaporized=""/>
    <tripinfo id="28" depart="180.00" departLane="E7_0" departPos="5.10" departSpeed="0.00" departDelay="0.80" arrival="295.00" arrivalLane="E4_0" arrivalPos="489.60" arrivalSpeed="15.12" duration="115.00" routeLength="1483.06" waitingTime="3.00" waitingCount="1" stopTime="0.00" timeLoss="20.12" rerouteNo="1" devices="tripinfo_28 routing_28" vType="DEFAULT_VEHTYPE" speedFactor="1.13" vaporized=""/>
    <tripinfo id="31" depart="199.00" departLane="-E2_0" departPos="5.10" departSpeed="0.00" departDelay="0.60" arrival="303.00" arrivalLane="-E0_0" arrivalPos="489.60" arrivalSpeed="15.34" duration="104.00" routeLength="1494.90" waitingTime="0.00" waitingCount="0" stopTime="0.00" timeLoss="9.97" rerouteNo="1" devices="tripinfo_31 routing_31" vType="DEFAULT_VEHTYPE" speedFactor="1.15" vaporized=""/>
    <tripinfo id="9" depart="58.00" departLane="-E4_0" departPos="5.10" departSpeed="0.00" departDelay="0.40" arrival="310.00" arrivalLane="-E3_0" arrivalPos="479.20" arrivalSpeed="11.00" duration="252.00" routeLength="2468.39" waitingTime="7.00" waitingCount="2" stopTime="0.00" timeLoss="40.77" rerouteNo="1" devices="tripinfo_9 routing_9" vType="DEFAULT_VEHTYPE" speedFactor="0.86" vaporized=""/>
    <tripinfo id="14" depart="90.00" departLane="-E7_0" departPos="5.10" departSpeed="0.00" departDelay="0.40" arrival="310.00" arrivalLane="E9_0" arrivalPos="489.60" arrivalSpeed="12.82" duration="220.00" routeLength="2449.19" waitingTime="13.00" waitingCount="3" stopTime="0.00" timeLoss="40.28" rerouteNo="1" devices="tripinfo_14 routing_14" vType="DEFAULT_VEHTYPE" speedFactor="0.99" vaporized=""/>
    <tripinfo id="36" depart="231.00" departLane="E5_0" departPos="5.10" departSpeed="0.00" departDelay="0.60" arrival="323.00" arrivalLane="E11_0" arrivalPos="489.60" arrivalSpeed="13.31" duration="92.00" routeLength="984.50" waitingTime="7.00" waitingCount="1" stopTime="0.00" timeLoss="18.33" rerouteNo="0" devices="tripinfo_36 routing_36" vType="DEFAULT_VEHTYPE" speedFactor="0.97" vaporized=""/>
    <tripinfo id="32" depart="205.00" departLane="-E4_0" departPos="5.10" departSpeed="0.00" departDelay="0.20" arrival="327.00" arrivalLane="-E7_0" arrivalPos="479.20" arrivalSpeed="12.68" duration="122.00" routeLength="1472.73" waitingTime="3.00" waitingCount="1" stopTime="0.00" timeLoss="15.14" rerouteNo="1" devices="tripinfo_32 routing_32" vType="DEFAULT_VEHTYPE" speedFactor="1.01" vaporized=""/>
    <tripinfo id="21" depart="135.00" departLane="-E10_0" departPos="5.10" departSpeed="0.00" departDelay="0.60" arrival="331.00" arrivalLane="-E7_0" arrivalPos="479.20" arrivalSpeed="13.71" duration="196.00" routeLength="2447.74" waitingTime="0.00" waitingCount="0" stopTime="0.00" timeLoss="19.14" rerouteNo="1" devices="tripinfo_21 routing_21" vType="DEFAULT_VEHTYPE" speedFactor="1.01" vaporized=""/>
    <tripinfo id="23" depart="148.00" departLane="-E4_0" departPos="5.10" departSpeed="0.00" departDelay="0.80" arrival="332.00" arrivalLane="-E5_0" arrivalPos="479.20" arrivalSpeed="11.27" duration="184.00" routeLength="1960.96" waitingTime="6.00" waitingCount="1" stopTime="0.00" timeLoss="23.46" rerouteNo="1" devices="tripinfo_23 routing_23" vType="DEFAULT_VEHTYPE" speedFactor="0.89" vaporized=""/>
    <tripinfo id="46" depart="295.00" departLane="E7_0" departPos="5.10" departSpeed="0.00" departDelay="0.60" arrival="334.00" arrivalLane="E7_0" arrivalPos="479.20" arrivalSpeed="12.86" duration="39.00" routeLength="474.10" waitingTime="0.00" waitingCount="0" stopTime="0.00" timeLoss="4.78" rerouteNo="1" devices="tripinfo_46 routing_46" vType="DEFAULT_VEHTYPE" speedFactor="1.00" vaporized=""/>
    <tripinfo id="33" depart="212.00" departLane="-E2_0" departPos="5.10" departSpeed="0.00" departDelay="0.80" arrival="356.00" arrivalLane="E9_0" arrivalPos="489.60" arrivalSpeed="15.00" duration="144.00" routeLength="1983.13" waitingTime="1.00" waitingCount="1" stopTime="0.00" timeLoss="20.73" rerouteNo="1" devices="tripinfo_33 routing_33" vType="DEFAULT_VEHTYPE" speedFactor="1.17" vaporized=""/>
    <tripinfo id="30" depart="196.00" departLane="E3_0" departPos="5.10" departSpeed="0.00" departDelay="4.00" arrival="359.00" arrivalLane="E6_0" arrivalPos="489.60" arrivalSpeed="16.04" duration="163.00" routeLength="1960.96" waitingTime="5.00" waitingCount="1" stopTime="0.00" timeLoss="41.92" rerouteNo="1" devices="tripinfo_30 routing_30" vType="DEFAULT_VEHTYPE" speedFactor="1.18" vaporized=""/>
    <tripinfo id="35" depart="224.00" departLane="-E9_0" departPos="5.10" departSpeed="0.00" departDelay="0.00" arrival="360.00" arrivalLane="E10_0" arrivalPos="489.60" arrivalSpeed="12.97" duration="136.00" routeLength="1493.45" waitingTime="8.00" waitingCount="3" stopTime="0.00" timeLoss="29.82" rerouteNo="1" devices="tripinfo_35 routing_35" vType="DEFAULT_VEHTYPE" speedFactor="1.02" vaporized=""/>
    <tripinfo id="29" depart="186.00" departLane="-E7_0" departPos="5.10" departSpeed="0.00" departDelay="0.40" arrival="364.00" arrivalLane="E4_0" arrivalPos="489.60" arrivalSpeed="11.77" duration="178.00" routeLength="1959.51" waitingTime="4.00" waitingCount="1" stopTime="0.00" timeLoss="24.19" rerouteNo="1" devices="tripinfo_29 routing_29" vType="DEFAULT_VEHTYPE" speedFactor="0.93" vaporized=""/>
    <tripinfo id="18" depart="116.00" departLane="E0_0" departPos="5.10" departSpeed="0.00" departDelay="0.80" arrival="380.00" arrivalLane="-E0_0" arrivalPos="489.60" arrivalSpeed="12.40" duration="264.00" routeLength="2958.14" waitingTime="5.00" waitingCount="1" stopTime="0.00" timeLoss="34.45" rerouteNo="1" devices="tripinfo_18 routing_18" vType="DEFAULT_VEHTYPE" speedFactor="0.94" vaporized=""/>
    <tripinfo id="26" depart="167.00" departLane="-E11_0" departPos="5.10" departSpeed="0.00" departDelay="0.60" arrival="396.00" arrivalLane="E5_0" arrivalPos="479.20" arrivalSpeed="12.62" duration="229.00" routeLength="2468.39" waitingTime="5.00" waitingCount="2" stopTime="0.00" timeLoss="32.32" rerouteNo="1" devices="tripinfo_26 routing_26" vType="DEFAULT_VEHTYPE" speedFactor="0.92" vaporized=""/>
    <tripinfo id="51" depart="327.00" departLane="E5_0" departPos="5.10" departSpeed="0.00" departDelay="0.60" arrival="396.00" arrivalLane="E7_0" arrivalPos="479.20" arrivalSpeed="15.90" duration="69.00" routeLength="972.65" waitingTime="0.00" waitingCount="0" stopTime="0.00" timeLoss="7.97" rerouteNo="0" devices="tripinfo_51 routing_51" vType="DEFAULT_VEHTYPE" speedFactor="1.17" vaporized=""/>
    <tripinfo id="43" depart="276.00" departLane="E1_0" departPos="5.10" departSpeed="0.00" departDelay="0.80" arrival="398.00" arrivalLane="E10_0" arrivalPos="489.60" arrivalSpeed="14.08" duration="122.00" routeLength="1471.28" waitingTime="3.00" waitingCount="1" stopTime="0.00" timeLoss="18.61" rerouteNo="1" devices="tripinfo_43 routing_43" vType="DEFAULT_VEHTYPE" speedFactor="1.04" vaporized=""/>
    <tripinfo id="25" depart="160.00" departLane="-E9_0" departPos="5.10" departSpeed="0.00" departDelay="0.00" arrival="400.00" arrivalLane="E3_0" arrivalPos="479.20" arrivalSpeed="11.23" duration="240.00" routeLength="2447.74" waitingTime="9.00" waitingCount="2" stopTime="0.00" timeLoss="34.39" rerouteNo="1" devices="tripinfo_25 routing_25" vType="DEFAULT_VEHTYPE" speedFactor="0.87" vaporized=""/>
    <tripinfo id="34" depart="218.00" departLane="E5_0" departPos="5.10" departSpeed="0.00" departDelay="0.40" arrival="400.00" arrivalLane="E1_0" arrivalPos="479.20" arrivalSpeed="13.63" duration="182.00" routeLength="1969.76" waitingTime="14.00" waitingCount="3" stopTime="0.00" timeLoss="37.75" rerouteNo="1" devices="tripinfo_34 routing_34" vType="DEFAULT_VEHTYPE" speedFactor="0.99" vaporized=""/>
    <tripinfo id="48" depart="308.00" departLane="-E3_0" departPos="5.10" departSpeed="0.00" departDelay="0.80" arrival="406.00" arrivalLane="E4_0" arrivalPos="489.60" arrivalSpeed="11.55" duration="98.00" routeLength="984.50" waitingTime="5.00" waitingCount="1" stopTime="0.00" timeLoss="17.03" rerouteNo="0" devices="tripinfo_48 routing_48" vType="DEFAULT_VEHTYPE" speedFactor="0.88" vaporized=""/>
    <tripinfo id="24" depart="154.00" departLane="-E3_0" departPos="5.10" departSpeed="0.00" departDelay="0.40" arrival="415.00" arrivalLane="E8_0" arrivalPos="489.60" arrivalSpeed="11.24" duration="261.00" routeLength="2480.15" waitingTime="11.00" waitingCount="3" stopTime="0.00" timeLoss="41.54" rerouteNo="1" devices="tripinfo_24 routing_24" vType="DEFAULT_VEHTYPE" speedFactor="0.83" vaporized=""/>
    <tripinfo id="52" depart="333.00" departLane="-E3_0" departPos="5.10" departSpeed="0.00" departDelay="0.20" arrival="416.00" arrivalLane="E4_0" arrivalPos="489.60" arrivalSpeed="13.63" duration="83.00" routeLength="984.50" waitingTime="1.00" waitingCount="1" stopTime="0.00" timeLoss="12.45" rerouteNo="0" devices="tripinfo_52 routing_52" vType="DEFAULT_VEHTYPE" speedFactor="1.02" vaporized=""/>
    <tripinfo id="53" depart="340.00" departLane="-E8_0" departPos="5.10" departSpeed="0.00" departDelay="0.80" arrival="418.00" arrivalLane="-E3_0" arrivalPos="479.20" arrivalSpeed="14.76" duration="78.00" routeLength="972.73" waitingTime="3.00" waitingCount="1" stopTime="0.00" timeLoss="13.07" rerouteNo="0" devices="tripinfo_53 routing_53" vType="DEFAULT_VEHTYPE" speedFactor="1.10" vaporized=""/>
    <tripinfo id="42" depart="269.00" departLane="-E10_0" departPos="5.10" departSpeed="0.00" departDelay="0.20" arrival="422.00" arrivalLane="E4_0" arrivalPos="489.60" arrivalSpeed="14.65" duration="153.00" routeLength="1980.23" waitingTime="1.00" waitingCount="1" stopTime="0.00" timeLoss="19.84" rerouteNo="1" devices="tripinfo_42 routing_42" vType="DEFAULT_VEHTYPE" speedFactor="1.09" vaporized=""/>
    <tripinfo id="54" depart="346.00" departLane="E1_0" departPos="5.10" departSpeed="0.00" departDelay="0.40" arrival="426.00" arrivalLane="E2_0" arrivalPos="489.60" arrivalSpeed="12.94" duration="80.00" routeLength="984.50" waitingTime="0.00" waitingCount="0" stopTime="0.00" timeLoss="9.29" rerouteNo="0" devices="tripinfo_54 routing_54" vType="DEFAULT_VEHTYPE" speedFactor="1.00" vaporized=""/>
    <tripinfo id="40" depart="256.00" departLane="E7_0" departPos="5.10" departSpeed="0.00" departDelay="0.00" arrival="428.00" arrivalLane="E2_0" arrivalPos="489.60" arrivalSpeed="13.83" duration="172.00" routeLength="1981.61" waitingTime="7.00" waitingCount="2" stopTime="0.00" timeLoss="32.30" rerouteNo="1" devices="tripinfo_40 routing_40" vType="DEFAULT_VEHTYPE" speedFactor="1.03" vaporized=""/>
    <tripinfo id="41" depart="263.00" departLane="-E10_0" departPos="5.10" departSpeed="0.00" departDelay="0.60" arrival="428.00" arrivalLane="-E0_0" arrivalPos="489.60" arrivalSpeed="12.22" duration="165.00" routeLength="1981.68" waitingTime="0.00" waitingCount="0" stopTime="0.00" timeLoss="13.75" rerouteNo="1" devices="tripinfo_41 routing_41" vType="DEFAULT_VEHTYPE" speedFactor="0.96" vaporized=""/>
    <tripinfo id="55" depart="352.00" departLane="E1_0" departPos="5.10" departSpeed="0.00" departDelay="0.00" arrival="430.00" arrivalLane="E2_1" arrivalPos="489.60" arrivalSpeed="13.61" duration="78.00" routeLength="984.50" waitingTime="0.00" waitingCount="0" stopTime="0.00" timeLoss="5.89" rerouteNo="0" devices="tripinfo_55 routing_55" vType="DEFAULT_VEHTYPE" speedFactor="1.00" vaporized=""/>
    <tripinfo id="57" depart="365.00" departLane="E5_0" departPos="5.10" departSpeed="0.00" departDelay="0.20" arrival="445.00" arrivalLane="E7_0" arrivalPos="479.20" arrivalSpeed="15.36" duration="80.00" routeLength="972.65" waitingTime="7.00" waitingCount="1" stopTime="0.00" timeLoss="18.14" rerouteNo="0" devices="tripinfo_57 routing_57" vType="DEFAULT_VEHTYPE" speedFactor="1.14" vaporized=""/>
    <tripinfo id="58" depart="372.00" departLane="-E3_0" departPos="5.10" departSpeed="0.00" departDelay="0.80" arrival="450.00" arrivalLane="-E0_0" arrivalPos="489.60" arrivalSpeed="14.17" duration="78.00" routeLength="972.73" waitingTime="0.00" waitingCount="0" stopTime="0.00" timeLoss="9.01" rerouteNo="0" devices="tripinfo_58 routing_58" vType="DEFAULT_VEHTYPE" speedFactor="1.02" vaporized=""/>
    <tripinfo id="45" depart="288.00" departLane="E7_0" departPos="5.10" departSpeed="0.00" departDelay="0.00" arrival="458.00" arrivalLane="E2_0" arrivalPos="489.60" arrivalSpeed="14.67" duration="170.00" routeLength="1981.61" waitingTime="12.00" waitingCount="3" stopTime="0.00" timeLoss="37.37" rerouteNo="1" devices="tripinfo_45 routing_45" vType="DEFAULT_VEHTYPE" speedFactor="1.09" vaporized=""/>
    <tripinfo id="60" depart="384.00" departLane="-E10_0" departPos="5.10" departSpeed="0.00" departDelay="0.00" arrival="458.00" arrivalLane="E11_0" arrivalPos="489.60" arrivalSpeed="14.06" duration="74.00" routeLength="983.13" waitingTime="0.00" waitingCount="0" stopTime="0.00" timeLoss="7.98" rerouteNo="0" devices="tripinfo_60 routing_60" vType="DEFAULT_VEHTYPE" speedFactor="1.08" vaporized=""/>
    <tripinfo id="65" depart="416.00" departLane="-E5_0" departPos="5.10" departSpeed="0.00" departDelay="0.00" arrival="460.00" arrivalLane="-E5_0" arrivalPos="479.20" arrivalSpeed="11.32" duration="44.00" routeLength="474.10" waitingTime="0.00" waitingCount="0" stopTime="0.00" timeLoss="4.91" rerouteNo="1" devices="tripinfo_65 routing_65" vType="DEFAULT_VEHTYPE" speedFactor="0.88" vaporized=""/>
    <tripinfo id="38" depart="244.00" departLane="-E8_0" departPos="5.10" departSpeed="0.00" departDelay="0.80" arrival="477.00" arrivalLane="E8_0" arrivalPos="489.60" arrivalSpeed="14.91" duration="233.00" routeLength="2958.14" waitingTime="3.00" waitingCount="1" stopTime="0.00" timeLoss="36.80" rerouteNo="1" devices="tripinfo_38 routing_38" vType="DEFAULT_VEHTYPE" speedFactor="1.10" vaporized=""/>
    <tripinfo id="47" depart="301.00" departLane="-E9_0" departPos="5.10" departSpeed="0.00" departDelay="0.20" arrival="483.00" arrivalLane="E2_0" arrivalPos="489.60" arrivalSpeed="12.27" duration="182.00" routeLength="1993.45" waitingTime="3.00" waitingCount="1" stopTime="0.00" timeLoss="21.15" rerouteNo="1" devices="tripinfo_47 routing_47" vType="DEFAULT_VEHTYPE" speedFactor="0.90" vaporized=""/>
    <tripinfo id="63" depart="404.00" departLane="-E6_0" departPos="5.10" departSpeed="0.00" departDelay="0.80" arrival="486.00" arrivalLane="E2_0" arrivalPos="489.60" arrivalSpeed="12.50" duration="82.00" routeLength="983.13" waitingTime="0.00" waitingCount="0" stopTime="0.00" timeLoss="9.31" rerouteNo="0" devices="tripinfo_63 routing_63" vType="DEFAULT_VEHTYPE" speedFactor="0.99" vaporized=""/>
    <tripinfo id="56" depart="359.00" departLane="-E1_0" departPos="5.10" departSpeed="0.00" departDelay="0.60" arrival="499.00" arrivalLane="E8_0" arrivalPos="489.60" arrivalSpeed="11.25" duration="140.00" routeLength="1471.28" waitingTime="6.00" waitingCount="1" stopTime="0.00" timeLoss="20.71" rerouteNo="1" devices="tripinfo_56 routing_56" vType="DEFAULT_VEHTYPE" speedFactor="0.90" vaporized=""/>
    <tripinfo id="50" depart="320.00" departLane="-E6_0" departPos="5.10" departSpeed="0.00" departDelay="0.00" arrival="509.00" arrivalLane="E9_0" arrivalPos="489.60" arrivalSpeed="11.28" duration="189.00" routeLength="1981.68" waitingTime="0.00" waitingCount="0" stopTime="0.00" timeLoss="19.71" rerouteNo="1" devices="tripinfo_50 routing_50" vType="DEFAULT_VEHTYPE" speedFactor="0.85" vaporized=""/>
    <tripinfo id="61" depart="391.00" departLane="-E10_0" departPos="5.10" departSpeed="0.00" departDelay="0.60" arrival="514.00" arrivalLane="E6_0" arrivalPos="489.60" arrivalSpeed="14.46" duration="123.00" routeLength="1493.45" waitingTime="9.00" waitingCount="2" stopTime="0.00" timeLoss="26.02" rerouteNo="1" devices="tripinfo_61 routing_61" vType="DEFAULT_VEHTYPE" speedFactor="1.12" vaporized=""/>
    <tripinfo id="68" depart="436.00" departLane="-E6_0" departPos="5.10" departSpeed="0.00" departDelay="0.80" arrival="515.00" arrivalLane="E2_0" arrivalPos="489.60" arrivalSpeed="13.95" duration="79.00" routeLength="983.13" waitingTime="0.00" waitingCount="0" stopTime="0.00" timeLoss="9.94" rerouteNo="0" devices="tripinfo_68 routing_68" vType="DEFAULT_VEHTYPE" speedFactor="1.04" vaporized=""/>
    <tripinfo id="59" depart="378.00" departLane="E5_0" departPos="5.10" departSpeed="0.00" departDelay="0.40" arrival="520.00" arrivalLane="E9_0" arrivalPos="489.60" arrivalSpeed="12.89" duration="142.00" routeLength="1471.28" waitingTime="13.00" waitingCount="2" stopTime="0.00" timeLoss="30.62" rerouteNo="1" devices="tripinfo_59 routing_59" vType="DEFAULT_VEHTYPE" speedFactor="0.97" vaporized=""/>
    <tripinfo id="69" depart="442.00" departLane="-E10_0" departPos="5.10" departSpeed="0.00" departDelay="0.40" arrival="521.00" arrivalLane="-E5_0" arrivalPos="479.20" arrivalSpeed="14.06" duration="79.00" routeLength="983.05" waitingTime="0.00" waitingCount="0" stopTime="0.00" timeLoss="8.99" rerouteNo="0" devices="tripinfo_69 routing_69" vType="DEFAULT_VEHTYPE" speedFactor="1.02" vaporized=""/>
    <tripinfo id="70" depart="448.00" departLane="-E4_0" departPos="5.10" departSpeed="0.00" departDelay="0.00" arrival="525.00" arrivalLane="E3_0" arrivalPos="479.20" arrivalSpeed="13.50" duration="77.00" routeLength="984.50" waitingTime="0.00" waitingCount="0" stopTime="0.00" timeLoss="7.00" rerouteNo="0" devices="tripinfo_70 routing_70" vType="DEFAULT_VEHTYPE" speedFactor="1.02" vaporized=""/>
    <tripinfo id="44" depart="282.00" departLane="-E10_0" departPos="5.10" departSpeed="0.00" departDelay="0.40" arrival="539.00" arrivalLane="E10_0" arrivalPos="489.60" arrivalSpeed="13.23" duration="257.00" routeLength="2958.14" waitingTime="10.00" waitingCount="2" stopTime="0.00" timeLoss="49.41" rerouteNo="1" devices="tripinfo_44 routing_44" vType="DEFAULT_VEHTYPE" speedFactor="1.04" vaporized=""/>
    <tripinfo id="62" depart="397.00" departLane="E1_0" departPos="5.10" departSpeed="0.00" departDelay="0.20" arrival="555.00" arrivalLane="-E3_0" arrivalPos="479.20" arrivalSpeed="14.09" duration="158.00" routeLength="1969.76" waitingTime="0.00" waitingCount="0" stopTime="0.00" timeLoss="15.07" rerouteNo="1" devices="tripinfo_62 routing_62" vType="DEFAULT_VEHTYPE" speedFactor="1.02" vaporized=""/>
    <tripinfo id="67" depart="429.00" departLane="E7_0" departPos="5.10" departSpeed="0.00" departDelay="0.20" arrival="564.00" arrivalLane="E4_0" arrivalPos="489.60" arrivalSpeed="11.70" duration="135.00" routeLength="1483.06" waitingTime="4.00" waitingCount="1" stopTime="0.00" timeLoss="17.27" rerouteNo="1" devices="tripinfo_67 routing_67" vType="DEFAULT_VEHTYPE" speedFactor="0.91" vaporized=""/>
    <tripinfo id="87" depart="557.00" departLane="E7_0" departPos="5.10" departSpeed="0.00" departDelay="0.20" arrival="595.00" arrivalLane="E7_0" arrivalPos="479.20" arrivalSpeed="13.59" duration="38.00" routeLength="474.10" waitingTime="0.00" waitingCount="0" stopTime="0.00" timeLoss="4.57" rerouteNo="1" devices="tripinfo_87 routing_87" vType="DEFAULT_VEHTYPE" speedFactor="1.04" vaporized=""/>
    <tripinfo id="49" depart="314.00" departLane="-E10_0" departPos="5.10" departSpeed="0.00" departDelay="0.40" arrival="599.00" arrivalLane="E10_0" arrivalPos="489.60" arrivalSpeed="11.22" duration="285.00" routeLength="2958.14" waitingTime="5.00" waitingCount="1" stopTime="0.00" timeLoss="30.66" rerouteNo="1" devices="tripinfo_49 routing_49" vType="DEFAULT_VEHTYPE" speedFactor="0.85" vaporized=""/>
    <tripinfo id="80" depart="512.00" departLane="E0_0" departPos="5.10" departSpeed="0.00" departDelay="0.00" arrival="599.00" arrivalLane="E4_0" arrivalPos="489.60" arrivalSpeed="13.82" duration="87.00" routeLength="983.13" waitingTime="5.00" waitingCount="1" stopTime="0.00" timeLoss="17.38" rerouteNo="0" devices="tripinfo_80 routing_80" vType="DEFAULT_VEHTYPE" speedFactor="1.03" vaporized=""/>