<?xml version="1.0" encoding="UTF-8"?>

<!-- generated on 2026-01-12T14:19:55.276856+08:00 by Eclipse SUMO GUI 1.25.0
<sumoConfiguration xmlns:xsi="http://www.w3.org/2001/XMLSchema-instance" xsi:noNamespaceSchemaLocation="http://sumo.dlr.de/xsd/sumoConfiguration.xsd">

    <input>
        <net-file value="final_map.net.xml"/>
        <route-files value="trips.xml"/>
        <additional-files value="osm.poly.xml.gz,output.add.xml"/>
    </input>

    <output>
        <summary-output value="data_selfish_summary.xml"/>
        <tripinfo-output value="data_selfish_tripinfo.xml"/>
        <statistic-output value="data_selfish_stats.xml"/>
    </output>

    <processing>
        <ignore-route-errors value="true"/>
        <tls.actuated.jam-threshold value="30"/>
    </processing>

    <routing>
        <device.rerouting.adaptation-steps value="18"/>
        <device.rerouting.adaptation-interval value="10"/>
    </routing>

    <report>
        <verbose value="true"/>
        <duration-log.statistics value="true"/>
        <no-step-log value="true"/>
    </report>

    <gui_only>
        <gui-settings-file value="osm.view.xml"/>
    </gui_only>

</sumoConfiguration>
-->

<tripinfos xmlns:xsi="http://www.w3.org/2001/XMLSchema-instance" xsi:noNamespaceSchemaLocation="http://sumo.dlr.de/xsd/tripinfo_file.xsd">
    <tripinfo id="15" depart="45.00" departLane="744999974#1_1" departPos="5.10" departSpeed="0.00" departDelay="0.00" arrival="52.00" arrivalLane="-1279681436#0_0" arrivalPos="23.22" arrivalSpeed="12.47" duration="7.00" routeLength="50.09" waitingTime="0.00" waitingCount="0" stopTime="0.00" timeLoss="2.90" rerouteNo="0" devices="tripinfo_15 routing_15" vType="DEFAULT_VEHTYPE" speedFactor="0.93" vaporized=""/>
    <tripinfo id="0" depart="0.00" departLane="744645397#1_1" departPos="5.10" departSpeed="0.00" departDelay="0.00" arrival="57.00" arrivalLane="-1279681436#0_0" arrivalPos="23.22" arrivalSpeed="14.39" duration="57.00" routeLength="611.01" waitingTime="12.00" waitingCount="1" stopTime="0.00" timeLoss="27.62" rerouteNo="1" devices="tripinfo_0 routing_0" vType="DEFAULT_VEHTYPE" speedFactor="1.06" vaporized=""/>
    <tripinfo id="7" depart="21.00" departLane="747228982#0_0" departPos="5.10" departSpeed="0.00" departDelay="0.00" arrival="66.00" arrivalLane="-1279681436#0_0" arrivalPos="23.22" arrivalSpeed="11.50" duration="45.00" routeLength="472.34" waitingTime="0.00" waitingCount="0" stopTime="0.00" timeLoss="8.53" rerouteNo="1" devices="tripinfo_7 routing_7" vType="DEFAULT_VEHTYPE" speedFactor="0.89" vaporized=""/>
    <tripinfo id="1" depart="3.00" departLane="1279681436#0_0" departPos="5.10" departSpeed="0.00" departDelay="0.00" arrival="71.00" arrivalLane="174398008#1_0" arrivalPos="14.14" arrivalSpeed="7.17" duration="68.00" routeLength="700.21" waitingTime="0.00" waitingCount="0" stopTime="0.00" timeLoss="10.43" rerouteNo="1" devices="tripinfo_1 routing_1" vType="DEFAULT_VEHTYPE" speedFactor="0.94" vaporized=""/>
    <tripinfo id="2" depart="6.00" departLane="746423901#2_1" departPos="5.10" departSpeed="0.00" departDelay="0.00" arrival="75.00" arrivalLane="744645402#1_1" arrivalPos="55.45" arrivalSpeed="26.96" duration="69.00" routeLength="1027.52" waitingTime="0.00" waitingCount="0" stopTime="0.00" timeLoss="15.24" rerouteNo="1" devices="tripinfo_2 routing_2" vType="DEFAULT_VEHTYPE" speedFactor="1.01" vaporized=""/>
    <tripinfo id="13" depart="39.00" departLane="747228982#0_0" departPos="5.10" departSpeed="0.00" departDelay="0.00" arrival="80.00" arrivalLane="744944961_0" arrivalPos="55.92" arrivalSpeed="14.76" duration="41.00" routeLength="215.76" waitingTime="11.00" waitingCount="2" stopTime="0.00" timeLoss="29.60" rerouteNo="1" devices="tripinfo_13 routing_13" vType="DEFAULT_VEHTYPE" speedFactor="1.12" vaporized=""/>
    <tripinfo id="10" depart="30.00" departLane="750570767_2" departPos="5.10" departSpeed="0.00" departDelay="0.00" arrival="83.00" arrivalLane="32487759#2_2" arrivalPos="16.69" arrivalSpeed="14.08" duration="53.00" routeLength="412.09" waitingTime="13.00" waitingCount="1" stopTime="0.00" timeLoss="28.62" rerouteNo="1" devices="tripinfo_10 routing_10" vType="DEFAULT_VEHTYPE" speedFactor="1.09" vaporized=""/>
    <tripinfo id="28" depart="84.00" departLane="1279681436#0_0" departPos="5.10" departSpeed="0.00" departDelay="0.00" arrival="93.00" arrivalLane="-1279681436#0_0" arrivalPos="23.22" arrivalSpeed="9.88" duration="9.00" routeLength="46.01" waitingTime="0.00" waitingCount="0" stopTime="0.00" timeLoss="5.24" rerouteNo="0" devices="tripinfo_28 routing_28" vType="DEFAULT_VEHTYPE" speedFactor="1.13" vaporized=""/>
    <tripinfo id="12" depart="36.00" departLane="747951014#0_2" departPos="5.10" departSpeed="0.00" departDelay="0.00" arrival="102.00" arrivalLane="744634701#1_0" arrivalPos="89.90" arrivalSpeed="7.51" duration="66.00" routeLength="679.84" waitingTime="6.00" waitingCount="2" stopTime="0.00" timeLoss="29.15" rerouteNo="1" devices="tripinfo_12 routing_12" vType="DEFAULT_VEHTYPE" speedFactor="1.05" vaporized=""/>
    <tripinfo id="17" depart="51.00" departLane="-745055614#2_0" departPos="5.10" departSpeed="0.00" departDelay="0.00" arrival="103.00" arrivalLane="174398011#3_0" arrivalPos="38.95" arrivalSpeed="7.57" duration="52.00" routeLength="313.34" waitingTime="3.00" waitingCount="1" stopTime="0.00" timeLoss="11.76" rerouteNo="1" devices="tripinfo_17 routing_17" vType="DEFAULT_VEHTYPE" speedFactor="0.94" vaporized=""/>
    <tripinfo id="9" depart="27.00" departLane="23370756_0" departPos="5.10" departSpeed="0.00" departDelay="0.00" arrival="104.00" arrivalLane="-746649485#0_1" arrivalPos="86.80" arrivalSpeed="11.60" duration="77.00" routeLength="412.53" waitingTime="19.00" waitingCount="2" stopTime="0.00" timeLoss="40.54" rerouteNo="1" devices="tripinfo_9 routing_9" vType="DEFAULT_VEHTYPE" speedFactor="0.86" vaporized=""/>
    <tripinfo id="27" depart="81.00" departLane="747951014#0_0" departPos="5.10" departSpeed="0.00" departDelay="0.00" arrival="113.00" arrivalLane="745062638#1_0" arrivalPos="33.30" arrivalSpeed="12.36" duration="32.00" routeLength="302.20" waitingTime="0.00" waitingCount="0" stopTime="0.00" timeLoss="9.02" rerouteNo="1" devices="tripinfo_27 routing_27" vType="DEFAULT_VEHTYPE" speedFactor="0.95" vaporized=""/>
    <tripinfo id="3" depart="9.00" departLane="749508470_0" departPos="5.10" departSpeed="0.00" departDelay="0.00" arrival="114.00" arrivalLane="-174398024#1_1" arrivalPos="18.74" arrivalSpeed="8.96" duration="105.00" routeLength="720.95" waitingTime="22.00" waitingCount="2" stopTime="0.00" timeLoss="49.83" rerouteNo="1" devices="tripinfo_3 routing_3" vType="DEFAULT_VEHTYPE" speedFactor="1.08" vaporized=""/>
    <tripinfo id="18" depart="54.00" departLane="-746653786#0_1" departPos="5.10" departSpeed="0.00" departDelay="0.00" arrival="114.00" arrivalLane="27788646#1_1" arrivalPos="10.31" arrivalSpeed="19.88" duration="60.00" routeLength="448.40" waitingTime="19.00" waitingCount="1" stopTime="0.00" timeLoss="31.14" rerouteNo="1" devices="tripinfo_18 routing_18" vType="DEFAULT_VEHTYPE" speedFactor="0.94" vaporized=""/>
    <tripinfo id="30" depart="90.00" departLane="1212501346_0" departPos="5.10" departSpeed="0.00" departDelay="0.00" arrival="116.00" arrivalLane="747939432_0" arrivalPos="37.82" arrivalSpeed="26.58" duration="26.00" routeLength="221.32" waitingTime="7.00" waitingCount="1" stopTime="0.00" timeLoss="19.12" rerouteNo="1" devices="tripinfo_30 routing_30" vType="DEFAULT_VEHTYPE" speedFactor="1.18" vaporized=""/>
    <tripinfo id="6" depart="18.00" departLane="1279681436#0_0" departPos="5.10" departSpeed="0.00" departDelay="0.00" arrival="121.00" arrivalLane="744634701#1_0" arrivalPos="89.90" arrivalSpeed="7.80" duration="103.00" routeLength="786.59" waitingTime="25.00" waitingCount="2" stopTime="0.00" timeLoss="48.82" rerouteNo="1" devices="tripinfo_6 routing_6" vType="DEFAULT_VEHTYPE" speedFactor="1.05" vaporized=""/>
    <tripinfo id="8" depart="24.00" departLane="747228982#0_0" departPos="5.10" departSpeed="0.00" departDelay="0.00" arrival="122.00" arrivalLane="744645402#1_1" arrivalPos="55.45" arrivalSpeed="24.94" duration="98.00" routeLength="885.54" waitingTime="31.00" waitingCount="1" stopTime="0.00" timeLoss="58.08" rerouteNo="1" devices="tripinfo_8 routing_8" vType="DEFAULT_VEHTYPE" speedFactor="0.94" vaporized=""/>
    <tripinfo id="4" depart="12.00" departLane="1212504575_1" departPos="5.10" departSpeed="0.00" departDelay="0.00" arrival="124.00" arrivalLane="572782867#1_0" arrivalPos="40.39" arrivalSpeed="13.18" duration="112.00" routeLength="670.63" waitingTime="39.00" waitingCount="4" stopTime="0.00" timeLoss="77.22" rerouteNo="1" devices="tripinfo_4 routing_4" vType="DEFAULT_VEHTYPE" speedFactor="1.03" vaporized=""/>
    <tripinfo id="39" depart="117.00" departLane="-746423901#2_1" departPos="5.10" departSpeed="0.00" departDelay="0.00" arrival="139.00" arrivalLane="-1279681436#0_0" arrivalPos="23.22" arrivalSpeed="11.05" duration="22.00" routeLength="129.68" waitingTime="0.00" waitingCount="0" stopTime="0.00" timeLoss="9.07" rerouteNo="1" devices="tripinfo_39 routing_39" vType="DEFAULT_VEHTYPE" speedFactor="0.90" vaporized=""/>
    <tripinfo id="33" depart="99.00" departLane="750570767_0" departPos="5.10" departSpeed="0.00" departDelay="0.00" arrival="140.00" arrivalLane="32836569#1_0" arrivalPos="42.32" arrivalSpeed="9.54" duration="41.00" routeLength="682.92" waitingTime="0.00" waitingCount="0" stopTime="0.00" timeLoss="15.28" rerouteNo="1" devices="tripinfo_33 routing_33" vType="DEFAULT_VEHTYPE" speedFactor="1.17" vaporized=""/>
    <tripinfo id="34" depart="102.00" departLane="1279681436#0_0" departPos="5.10" departSpeed="0.00" departDelay="0.00" arrival="142.00" arrivalLane="174398024#1_1" arrivalPos="18.74" arrivalSpeed="7.80" duration="40.00" routeLength="360.15" waitingTime="0.00" waitingCount="0" stopTime="0.00" timeLoss="5.86" rerouteNo="1" devices="tripinfo_34 routing_34" vType="DEFAULT_VEHTYPE" speedFactor="0.99" vaporized=""/>
    <tripinfo id="23" depart="69.00" departLane="-747853027#0_0" departPos="5.10" departSpeed="0.00" departDelay="0.00" arrival="146.00" arrivalLane="744944961_0" arrivalPos="55.92" arrivalSpeed="11.15" duration="77.00" routeLength="419.29" waitingTime="27.00" waitingCount="2" stopTime="0.00" timeLoss="44.83" rerouteNo="1" devices="tripinfo_23 routing_23" vType="DEFAULT_VEHTYPE" speedFactor="0.89" vaporized=""/>
    <tripinfo id="11" depart="33.00" departLane="-746423901#2_0" departPos="5.10" departSpeed="0.00" departDelay="0.00" arrival="147.00" arrivalLane="-184852733#0_0" arrivalPos="59.42" arrivalSpeed="7.93" duration="114.00" routeLength="908.02" waitingTime="23.00" waitingCount="3" stopTime="0.00" timeLoss="54.93" rerouteNo="1" devices="tripinfo_11 routing_11" vType="DEFAULT_VEHTYPE" speedFactor="1.03" vaporized=""/>
    <tripinfo id="26" depart="78.00" departLane="51355540#1_0" departPos="5.10" departSpeed="0.00" departDelay="0.00" arrival="147.00" arrivalLane="744645402#1_1" arrivalPos="55.45" arrivalSpeed="18.73" duration="69.00" routeLength="568.14" waitingTime="4.00" waitingCount="2" stopTime="0.00" timeLoss="28.07" rerouteNo="1" devices="tripinfo_26 routing_26" vType="DEFAULT_VEHTYPE" speedFactor="0.92" vaporized=""/>
    <tripinfo id="31" depart="93.00" departLane="747951014#0_1" departPos="5.10" departSpeed="0.00" departDelay="0.00" arrival="148.00" arrivalLane="32487759#2_2" arrivalPos="16.69" arrivalSpeed="15.76" duration="55.00" routeLength="957.87" waitingTime="0.00" waitingCount="0" stopTime="0.00" timeLoss="14.02" rerouteNo="1" devices="tripinfo_31 routing_31" vType="DEFAULT_VEHTYPE" speedFactor="1.15" vaporized=""/>
    <tripinfo id="5" depart="15.00" departLane="-174398024#1_1" departPos="5.10" departSpeed="0.00" departDelay="0.00" arrival="149.00" arrivalLane="-96487803#1_0" arrivalPos="46.30" arrivalSpeed="6.28" duration="134.00" routeLength="441.67" waitingTime="56.00" waitingCount="3" stopTime="0.00" timeLoss="78.59" rerouteNo="1" devices="tripinfo_5 routing_5" vType="DEFAULT_VEHTYPE" speedFactor="0.83" vaporized=""/>
    <tripinfo id="21" depart="63.00" departLane="1279681436#0_0" departPos="5.10" departSpeed="0.00" departDelay="0.00" arrival="153.00" arrivalLane="747853030_1" arrivalPos="16.63" arrivalSpeed="13.21" duration="90.00" routeLength="683.32" waitingTime="19.00" waitingCount="2" stopTime="0.00" timeLoss="42.46" rerouteNo="1" devices="tripinfo_21 routing_21" vType="DEFAULT_VEHTYPE" speedFactor="1.01" vaporized=""/>
    <tripinfo id="14" depart="42.00" departLane="747939433#1_1" departPos="5.10" departSpeed="0.00" departDelay="0.00" arrival="156.00" arrivalLane="744634701#1_0" arrivalPos="89.90" arrivalSpeed="7.43" duration="114.00" routeLength="899.39" waitingTime="26.00" waitingCount="2" stopTime="0.00" timeLoss="55.23" rerouteNo="1" devices="tripinfo_14 routing_14" vType="DEFAULT_VEHTYPE" speedFactor="0.99" vaporized=""/>
    <tripinfo id="32" depart="96.00" departLane="744926195#0_2" departPos="5.10" departSpeed="0.00" departDelay="0.00" arrival="165.00" arrivalLane="32488019#2_0" arrivalPos="17.28" arrivalSpeed="13.06" duration="69.00" routeLength="565.16" waitingTime="0.00" waitingCount="0" stopTime="0.00" timeLoss="22.01" rerouteNo="1" devices="tripinfo_32 routing_32" vType="DEFAULT_VEHTYPE" speedFactor="1.01" vaporized=""/>
    <tripinfo id="46" depart="138.00" departLane="747951014#0_0" departPos="5.10" departSpeed="0.00" departDelay="0.00" arrival="168.00" arrivalLane="184852741#1_0" arrivalPos="46.06" arrivalSpeed="13.64" duration="30.00" routeLength="313.61" waitingTime="0.00" waitingCount="0" stopTime="0.00" timeLoss="8.21" rerouteNo="1" devices="tripinfo_46 routing_46" vType="DEFAULT_VEHTYPE" speedFactor="1.00" vaporized=""/>
    <tripinfo id="19" depart="57.00" departLane="744632165#1_3" departPos="5.10" departSpeed="0.00" departDelay="0.00" arrival="171.00" arrivalLane="32488019#2_0" arrivalPos="17.28" arrivalSpeed="15.78" duration="114.00" routeLength="814.44" waitingTime="27.00" waitingCount="2" stopTime="0.00" timeLoss="64.21" rerouteNo="1" devices="tripinfo_19 routing_19" vType="DEFAULT_VEHTYPE" speedFactor="1.16" vaporized=""/>
    <tripinfo id="20" depart="60.00" departLane="23370756_0" departPos="5.10" departSpeed="0.00" departDelay="0.00" arrival="171.00" arrivalLane="-96489258#1_1" arrivalPos="28.61" arrivalSpeed="8.33" duration="111.00" routeLength="569.55" waitingTime="35.00" waitingCount="3" stopTime="0.00" timeLoss="67.78" rerouteNo="1" devices="tripinfo_20 routing_20" vType="DEFAULT_VEHTYPE" speedFactor="1.02" vaporized=""/>
    <tripinfo id="43" depart="129.00" departLane="-174398011#1_0" departPos="5.10" departSpeed="0.00" departDelay="0.00" arrival="178.00" arrivalLane="744926195#2_0" arrivalPos="19.04" arrivalSpeed="13.53" duration="49.00" routeLength="499.21" waitingTime="0.00" waitingCount="0" stopTime="0.00" timeLoss="12.94" rerouteNo="1" devices="tripinfo_43 routing_43" vType="DEFAULT_VEHTYPE" speedFactor="1.04" vaporized=""/>
    <tripinfo id="22" depart="66.00" departLane="744645404#1_3" departPos="5.10" departSpeed="0.00" departDelay="0.00" arrival="181.00" arrivalLane="744634701#1_0" arrivalPos="89.90" arrivalSpeed="7.17" duration="115.00" routeLength="747.47" waitingTime="42.00" waitingCount="2" stopTime="0.00" timeLoss="65.74" rerouteNo="1" devices="tripinfo_22 routing_22" vType="DEFAULT_VEHTYPE" speedFactor="0.97" vaporized=""/>
    <tripinfo id="29" depart="87.00" departLane="182331870#0_0" departPos="5.10" departSpeed="0.00" departDelay="0.00" arrival="194.00" arrivalLane="184852743#0_1" arrivalPos="24.94" arrivalSpeed="12.51" duration="107.00" routeLength="394.80" waitingTime="52.00" waitingCount="2" stopTime="0.00" timeLoss="68.38" rerouteNo="1" devices="tripinfo_29 routing_29" vType="DEFAULT_VEHTYPE" speedFactor="0.93" vaporized=""/>
    <tripinfo id="35" depart="105.00" departLane="569215926_2" departPos="4.28" departSpeed="0.00" departDelay="0.00" arrival="199.00" arrivalLane="184852733#1_0" arrivalPos="45.32" arrivalSpeed="8.19" duration="94.00" routeLength="473.71" waitingTime="37.00" waitingCount="2" stopTime="0.00" timeLoss="62.43" rerouteNo="1" devices="tripinfo_35 routing_35" vType="DEFAULT_VEHTYPE" speedFactor="1.02" vaporized=""/>
    <tripinfo id="36" depart="108.00" departLane="744632165#1_0" departPos="5.10" departSpeed="0.00" departDelay="0.00" arrival="202.00" arrivalLane="747447020#1_1" arrivalPos="18.06" arrivalSpeed="13.12" duration="94.00" routeLength="585.75" waitingTime="35.00" waitingCount="2" stopTime="0.00" timeLoss="55.77" rerouteNo="1" devices="tripinfo_36 routing_36" vType="DEFAULT_VEHTYPE" speedFactor="0.97" vaporized=""/>
    <tripinfo id="54" depart="162.00" departLane="747951014#0_0" departPos="5.10" departSpeed="0.00" departDelay="0.00" arrival="204.00" arrivalLane="747939433#1_0" arrivalPos="71.35" arrivalSpeed="13.44" duration="42.00" routeLength="204.30" waitingTime="17.00" waitingCount="1" stopTime="0.00" timeLoss="28.45" rerouteNo="1" devices="tripinfo_54 routing_54" vType="DEFAULT_VEHTYPE" speedFactor="1.00" vaporized=""/>
    <tripinfo id="37" depart="112.00" departLane="27788646#2_2" departPos="5.10" departSpeed="0.00" departDelay="1.00" arrival="211.00" arrivalLane="1280054791_1" arrivalPos="55.68" arrivalSpeed="8.66" duration="99.00" routeLength="716.39" waitingTime="35.00" waitingCount="2" stopTime="0.00" timeLoss="60.47" rerouteNo="1" devices="tripinfo_37 routing_37" vType="DEFAULT_VEHTYPE" speedFactor="1.18" vaporized=""/>
    <tripinfo id="62" depart="186.00" departLane="-747447020#1_0" departPos="5.10" departSpeed="0.00" departDelay="0.00" arrival="214.00" arrivalLane="174398008#1_0" arrivalPos="14.14" arrivalSpeed="8.42" duration="28.00" routeLength="184.56" waitingTime="0.00" waitingCount="0" stopTime="0.00" timeLoss="5.36" rerouteNo="1" devices="tripinfo_62 routing_62" vType="DEFAULT_VEHTYPE" speedFactor="1.02" vaporized=""/>
    <tripinfo id="50" depart="150.00" departLane="-1212504575_1" departPos="5.10" departSpeed="0.00" departDelay="0.00" arrival="221.00" arrivalLane="32487759#2_2" arrivalPos="16.69" arrivalSpeed="11.58" duration="71.00" routeLength="702.67" waitingTime="0.00" waitingCount="0" stopTime="0.00" timeLoss="14.07" rerouteNo="1" devices="tripinfo_50 routing_50" vType="DEFAULT_VEHTYPE" speedFactor="0.85" vaporized=""/>
    <tripinfo id="53" depart="159.00" departLane="174398024#2_0" departPos="5.10" departSpeed="0.00" departDelay="0.00" arrival="221.00" arrivalLane="-1279681436#0_0" arrivalPos="23.22" arrivalSpeed="12.88" duration="62.00" routeLength="488.77" waitingTime="12.00" waitingCount="1" stopTime="0.00" timeLoss="27.17" rerouteNo="1" devices="tripinfo_53 routing_53" vType="DEFAULT_VEHTYPE" speedFactor="1.10" vaporized=""/>
    <tripinfo id="57" depart="171.00" departLane="747228982#0_1" departPos="5.10" departSpeed="0.00" departDelay="0.00" arrival="228.00" arrivalLane="-744949908_1" arrivalPos="53.44" arrivalSpeed="15.38" duration="57.00" routeLength="377.53" waitingTime="18.00" waitingCount="2" stopTime="0.00" timeLoss="38.02" rerouteNo="1" devices="tripinfo_57 routing_57" vType="DEFAULT_VEHTYPE" speedFactor="1.14" vaporized=""/>
    <tripinfo id="41" depart="123.00" departLane="747228982#0_0" departPos="5.10" departSpeed="0.00" departDelay="0.00" arrival="235.00" arrivalLane="32836569#1_0" arrivalPos="42.32" arrivalSpeed="7.87" duration="112.00" routeLength="787.72" waitingTime="43.00" waitingCount="2" stopTime="0.00" timeLoss="71.65" rerouteNo="1" devices="tripinfo_41 routing_41" vType="DEFAULT_VEHTYPE" speedFactor="0.96" vaporized=""/>
    <tripinfo id="47" depart="141.00" departLane="750570767_0" departPos="5.10" departSpeed="0.00" departDelay="0.00" arrival="237.00" arrivalLane="747228981#1_1" arrivalPos="37.53" arrivalSpeed="13.97" duration="96.00" routeLength="930.15" waitingTime="6.00" waitingCount="2" stopTime="0.00" timeLoss="47.53" rerouteNo="1" devices="tripinfo_47 routing_47" vType="DEFAULT_VEHTYPE" speedFactor="0.90" vaporized=""/>
    <tripinfo id="38" depart="114.00" departLane="96489258#1_0" departPos="5.10" departSpeed="0.00" departDelay="0.00" arrival="245.00" arrivalLane="744632144#0_0" arrivalPos="5.21" arrivalSpeed="9.14" duration="131.00" routeLength="752.37" waitingTime="42.00" waitingCount="4" stopTime="0.00" timeLoss="87.55" rerouteNo="1" devices="tripinfo_38 routing_38" vType="DEFAULT_VEHTYPE" speedFactor="1.10" vaporized=""/>
    <tripinfo id="25" depart="75.00" departLane="96487803#1_0" departPos="5.10" departSpeed="0.00" departDelay="0.00" arrival="247.00" arrivalLane="744645397#1_2" arrivalPos="154.64" arrivalSpeed="18.42" duration="172.00" routeLength="810.16" waitingTime="77.00" waitingCount="5" stopTime="0.00" timeLoss="123.10" rerouteNo="1" devices="tripinfo_25 routing_25" vType="DEFAULT_VEHTYPE" speedFactor="0.87" vaporized=""/>
    <tripinfo id="44" depart="132.00" departLane="1279681436#0_0" departPos="5.10" departSpeed="0.00" departDelay="0.00" arrival="248.00" arrivalLane="744645399#0_2" arrivalPos="53.45" arrivalSpeed="25.68" duration="116.00" routeLength="1149.69" waitingTime="30.00" waitingCount="1" stopTime="0.00" timeLoss="59.06" rerouteNo="1" devices="tripinfo_44 routing_44" vType="DEFAULT_VEHTYPE" speedFactor="1.04" vaporized=""/>
    <tripinfo id="49" depart="147.00" departLane="744632165#1_3" departPos="5.10" departSpeed="0.00" departDelay="0.00" arrival="249.00" arrivalLane="-746423905#1_1" arrivalPos="45.15" arrivalSpeed="6.38" duration="102.00" routeLength="540.36" waitingTime="38.00" waitingCount="1" stopTime="0.00" timeLoss="55.75" rerouteNo="1" devices="tripinfo_49 routing_49" vType="DEFAULT_VEHTYPE" speedFactor="0.85" vaporized=""/>
    <tripinfo id="60" depart="180.00" departLane="-96487803#1_0" departPos="5.10" departSpeed="0.00" departDelay="0.00" arrival="250.00" arrivalLane="32487759#2_2" arrivalPos="16.69" arrivalSpeed="14.55" duration="70.00" routeLength="653.12" waitingTime="1.00" waitingCount="1" stopTime="0.00" timeLoss="23.45" rerouteNo="1" devices="tripinfo_60 routing_60" vType="DEFAULT_VEHTYPE" speedFactor="1.08" vaporized=""/>
    <tripinfo id="61" depart="183.00" departLane="96487804#2_0" departPos="5.10" departSpeed="0.00" departDelay="0.00" arrival="251.00" arrivalLane="744645402#1_1" arrivalPos="55.45" arrivalSpeed="19.06" duration="68.00" routeLength="341.88" waitingTime="24.00" waitingCount="1" stopTime="0.00" timeLoss="37.30" rerouteNo="1" devices="tripinfo_61 routing_61" vType="DEFAULT_VEHTYPE" speedFactor="1.12" vaporized=""/>
    <tripinfo id="24" depart="72.00" departLane="-747447020#1_1" departPos="5.10" departSpeed="0.00" departDelay="0.00" arrival="253.00" arrivalLane="32488019#2_0" arrivalPos="17.28" arrivalSpeed="10.89" duration="181.00" routeLength="1306.25" waitingTime="32.00" waitingCount="3" stopTime="0.00" timeLoss="78.64" rerouteNo="1" devices="tripinfo_24 routing_24" vType="DEFAULT_VEHTYPE" speedFactor="0.83" vaporized=""/>
    <tripinfo id="51" depart="153.00" departLane="-174398023#1_0" departPos="5.10" departSpeed="0.00" departDelay="0.00" arrival="256.00" arrivalLane="747447020#1_0" arrivalPos="18.06" arrivalSpeed="15.31" duration="103.00" routeLength="577.62" waitingTime="41.00" waitingCount="3" stopTime="0.00" timeLoss="69.42" rerouteNo="1" devices="tripinfo_51 routing_51" vType="DEFAULT_VEHTYPE" speedFactor="1.17" vaporized=""/>
    <tripinfo id="52" depart="156.00" departLane="747951014#0_2" departPos="5.10" departSpeed="0.00" departDelay="0.00" arrival="256.00" arrivalLane="745365881_0" arrivalPos="47.00" arrivalSpeed="13.78" duration="100.00" routeLength="643.54" waitingTime="46.00" waitingCount="2" stopTime="0.00" timeLoss="69.77" rerouteNo="1" devices="tripinfo_52 routing_52" vType="DEFAULT_VEHTYPE" speedFactor="1.02" vaporized=""/>
    <tripinfo id="73" depart="219.00" departLane="96487801#3_0" departPos="5.10" departSpeed="0.00" departDelay="0.00" arrival="257.00" arrivalLane="-184852733#0_0" arrivalPos="59.42" arrivalSpeed="7.57" duration="38.00" routeLength="266.46" waitingTime="0.00" waitingCount="0" stopTime="0.00" timeLoss="6.07" rerouteNo="1" devices="tripinfo_73 routing_73" vType="DEFAULT_VEHTYPE" speedFactor="1.06" vaporized=""/>
    <tripinfo id="16" depart="48.00" departLane="1279681436#0_0" departPos="5.10" departSpeed="0.00" departDelay="0.00" arrival="262.00" arrivalLane="307308395#1_0" arrivalPos="118.52" arrivalSpeed="6.66" duration="214.00" routeLength="1222.77" waitingTime="66.00" waitingCount="4" stopTime="0.00" timeLoss="105.58" rerouteNo="1" devices="tripinfo_16 routing_16" vType="DEFAULT_VEHTYPE" speedFactor="0.88" vaporized=""/>
    <tripinfo id="72" depart="216.00" departLane="745542369#1_0" departPos="5.10" departSpeed="0.00" departDelay="0.00" arrival="262.00" arrivalLane="744645402#1_0" arrivalPos="55.45" arrivalSpeed="16.57" duration="46.00" routeLength="654.08" waitingTime="4.00" waitingCount="1" stopTime="0.00" timeLoss="20.80" rerouteNo="1" devices="tripinfo_72 routing_72" vType="DEFAULT_VEHTYPE" speedFactor="0.94" vaporized=""/>
    <tripinfo id="40" depart="120.00" departLane="-747447020#1_1" departPos="5.10" departSpeed="0.00" departDelay="0.00" arrival="267.00" arrivalLane="744634701#1_0" arrivalPos="89.90" arrivalSpeed="7.64" duration="147.00" routeLength="939.85" waitingTime="54.00" waitingCount="2" stopTime="0.00" timeLoss="87.69" rerouteNo="1" devices="tripinfo_40 routing_40" vType="DEFAULT_VEHTYPE" speedFactor="1.03" vaporized=""/>
    <tripinfo id="59" depart="177.00" departLane="32906172#1_2" departPos="5.10" departSpeed="0.00" departDelay="0.00" arrival="270.00" arrivalLane="744944961_1" arrivalPos="55.92" arrivalSpeed="12.27" duration="93.00" routeLength="927.00" waitingTime="4.00" waitingCount="2" stopTime="0.00" timeLoss="50.17" rerouteNo="1" devices="tripinfo_59 routing_59" vType="DEFAULT_VEHTYPE" speedFactor="0.97" vaporized=""/>
    <tripinfo id="42" depart="126.00" departLane="-744949906#0_0" departPos="5.10" departSpeed="0.00" departDelay="0.00" arrival="276.00" arrivalLane="32488019#2_0" arrivalPos="17.28" arrivalSpeed="14.44" duration="150.00" routeLength="873.58" waitingTime="57.00" waitingCount="3" stopTime="0.00" timeLoss="92.43" rerouteNo="1" devices="tripinfo_42 routing_42" vType="DEFAULT_VEHTYPE" speedFactor="1.09" vaporized=""/>
    <tripinfo id="45" depart="135.00" departLane="-747447020#1_1" departPos="5.10" departSpeed="0.00" departDelay="0.00" arrival="279.00" arrivalLane="32836569#1_0" arrivalPos="42.32" arrivalSpeed="8.77" duration="144.00" routeLength="1092.39" waitingTime="33.00" waitingCount="3" stopTime="0.00" timeLoss="90.67" rerouteNo="1" devices="tripinfo_45 routing_45" vType="DEFAULT_VEHTYPE" speedFactor="1.09" vaporized=""/>
    <tripinfo id="81" depart="243.00" departLane="23370756_1" departPos="5.10" departSpeed="0.00" departDelay="0.00" arrival="279.00" arrivalLane="96487801#3_0" arrivalPos="11.14" arrivalSpeed="7.62" duration="36.00" routeLength="216.47" waitingTime="1.00" waitingCount="1" stopTime="0.00" timeLoss="12.90" rerouteNo="1" devices="tripinfo_81 routing_81" vType="DEFAULT_VEHTYPE" speedFactor="1.00" vaporized=""/>
    <tripinfo id="86" depart="258.00" departLane="81548613#0_1" departPos="5.10" departSpeed="0.00" departDelay="0.00" arrival="285.00" arrivalLane="744634701#1_0" arrivalPos="89.90" arrivalSpeed="7.48" duration="27.00" routeLength="198.61" waitingTime="0.00" waitingCount="0" stopTime="0.00" timeLoss="4.65" rerouteNo="1" devices="tripinfo_86 routing_86" vType="DEFAULT_VEHTYPE" speedFactor="1.00" vaporized=""/>
    <tripinfo id="70" depart="210.00" departLane="747228982#0_1" departPos="5.10" departSpeed="0.00" departDelay="0.00" arrival="287.00" arrivalLane="-96487801#2_0" arrivalPos="33.27" arrivalSpeed="8.42" duration="77.00" routeLength="431.27" waitingTime="20.00" waitingCount="3" stopTime="0.00" timeLoss="49.02" rerouteNo="1" devices="tripinfo_70 routing_70" vType="DEFAULT_VEHTYPE" speedFactor="1.02" vaporized=""/>
    <tripinfo id="64" depart="192.00" departLane="1279681436#0_0" departPos="5.10" departSpeed="0.00" departDelay="0.00" arrival="289.00" arrivalLane="1280054791_1" arrivalPos="55.68" arrivalSpeed="6.83" duration="97.00" routeLength="681.39" waitingTime="23.00" waitingCount="2" stopTime="0.00" timeLoss="41.66" rerouteNo="1" devices="tripinfo_64 routing_64" vType="DEFAULT_VEHTYPE" speedFactor="0.94" vaporized=""/>
    <tripinfo id="56" depart="168.00" departLane="-744949908_1" departPos="5.10" departSpeed="0.00" departDelay="0.00" arrival="294.00" arrivalLane="744999974#1_0" arrivalPos="8.17" arrivalSpeed="12.18" duration="126.00" routeLength="914.79" waitingTime="38.00" waitingCount="2" stopTime="0.00" timeLoss="65.33" rerouteNo="1" devices="tripinfo_56 routing_56" vType="DEFAULT_VEHTYPE" speedFactor="0.90" vaporized=""/>
    <tripinfo id="48" depart="144.00" departLane="174398023#2_1" departPos="5.10" departSpeed="0.00" departDelay="0.00" arrival="295.00" arrivalLane="744645397#1_2" arrivalPos="154.64" arrivalSpeed="23.85" duration="151.00" routeLength="924.23" waitingTime="54.00" waitingCount="3" stopTime="0.00" timeLoss="91.22" rerouteNo="1" devices="tripinfo_48 routing_48" vType="DEFAULT_VEHTYPE" speedFactor="0.88" vaporized=""/>
    <tripinfo id="55" depart="165.00" departLane="-745062638#1_0" departPos="5.10" departSpeed="0.00" departDelay="0.00" arrival="296.00" arrivalLane="35826312#0_0" arrivalPos="18.64" arrivalSpeed="7.62" duration="131.00" routeLength="1005.40" waitingTime="22.00" waitingCount="3" stopTime="0.00" timeLoss="72.40" rerouteNo="1" devices="tripinfo_55 routing_55" vType="DEFAULT_VEHTYPE" speedFactor="1.00" vaporized=""/>