<?xml version="1.0" encoding="UTF-8"?>

<!-- generated on 2026-02-04T14:15:41.331729+08:00 by Eclipse SUMO GUI 1.25.0
<sumoConfiguration xmlns:xsi="http://www.w3.org/2001/XMLSchema-instance" xsi:noNamespaceSchemaLocation="http://sumo.dlr.de/xsd/sumoConfiguration.xsd">

    <input>
        <net-file value="final_map.net.xml"/>
        <route-files value="trips_high.xml"/>
        <additional-files value="osm.poly.xml.gz,output.add.xml,vtypes.add.xml"/>
    </input>

    <output>
        <summary-output value="data\data_selfish_high_summary.xml"/>
        <tripinfo-output value="data\data_selfish_high_tripinfo.xml"/>
        <statistic-output value="data\data_selfish_high_stats.xml"/>
    </output>

    <processing>
        <ignore-route-errors value="true"/>
        <time-to-teleport value="300"/>
        <tls.actuated.jam-threshold value="30"/>
    </processing>

    <routing>
        <device.rerouting.adaptation-steps value="18"/>
        <device.rerouting.adaptation-interval value="10"/>
    </routing>

    <report>
        <verbose value="true"/>
        <duration-log.statistics value="true"/>
        <no-step-log value="true"/>
    </report>

    <emissions>
        <device.emissions.probability value="1.0"/>
    </emissions>

    <gui_only>
        <gui-settings-file value="osm.view.xml"/>
    </gui_only>

</sumoConfiguration>
-->

<meandata xmlns:xsi="http://www.w3.org/2001/XMLSchema-instance" xsi:noNamespaceSchemaLocation="http://sumo.dlr.de/xsd/meandata_file.xsd">
    <interval begin="0.00" end="217.00" id="wizard_example">
        <edge id="-101376495#1" sampledSeconds="0.00" departed="0" arrived="0" entered="0" left="0" laneChangedFrom="0" laneChangedTo="0"/>
        <edge id="-1212504575" sampledSeconds="66.94" traveltime="2.00" overlapTraveltime="2.38" density="11.97" overlapDensity="14.20" laneDensity="5.98" occupancy="2.74" waitingTime="0.00" timeLoss="14.05" speed="11.02" speedRelative="0.79" departed="4" arrived="0" entered="25" left="29" laneChangedFrom="0" laneChangedTo="0" flow="474.95"/>
        <edge id="-1279681436#0" sampledSeconds="21.56" traveltime="2.15" overlapTraveltime="2.52" density="3.84" overlapDensity="4.28" laneDensity="3.84" occupancy="1.63" waitingTime="0.00" timeLoss="4.72" speed="10.99" speedRelative="0.79" departed="0" arrived="9" entered="9" left="0" laneChangedFrom="0" laneChangedTo="0" flow="151.93"/>
        <edge id="-174398008#1" sampledSeconds="4.00" traveltime="4.75" overlapTraveltime="5.31" density="1.04" overlapDensity="1.30" laneDensity="1.04" occupancy="0.53" waitingTime="0.00" timeLoss="2.17" speed="3.51" speedRelative="0.42" departed="1" arrived="0" entered="0" left="1" laneChangedFrom="0" laneChangedTo="0" flow="13.18"/>
        <edge id="-174398008#2" sampledSeconds="0.00" departed="0" arrived="0" entered="0" left="0" laneChangedFrom="0" laneChangedTo="0"/>
        <edge id="-174398011#1" sampledSeconds="43.80" traveltime="8.25" overlapTraveltime="9.06" density="3.55" overlapDensity="3.90" laneDensity="3.55" occupancy="1.64" waitingTime="0.00" timeLoss="8.30" speed="6.21" speedRelative="0.75" departed="2" arrived="0" entered="3" left="5" laneChangedFrom="0" laneChangedTo="0" flow="79.26"/>
        <edge id="-174398011#3" sampledSeconds="24.83" traveltime="5.56" overlapTraveltime="6.21" density="2.63" overlapDensity="2.94" laneDensity="2.63" occupancy="1.19" waitingTime="0.00" timeLoss="2.25" speed="7.00" speedRelative="0.84" departed="0" arrived="1" entered="4" left="3" laneChangedFrom="0" laneChangedTo="0" flow="66.35"/>
        <edge id="-174398011#4" sampledSeconds="18.78" traveltime="4.08" overlapTraveltime="4.69" density="2.82" overlapDensity="3.24" laneDensity="2.82" occupancy="1.22" waitingTime="0.00" timeLoss="2.57" speed="6.64" speedRelative="0.80" departed="0" arrived="0" entered="4" left="4" laneChangedFrom="0" laneChangedTo="0" flow="67.38"/>
        <edge id="-174398023#1" sampledSeconds="66.57" traveltime="1.09" overlapTraveltime="1.46" density="17.36" overlapDensity="23.45" laneDensity="8.68" occupancy="3.99" waitingTime="0.00" timeLoss="8.43" speed="12.01" speedRelative="0.86" departed="2" arrived="0" entered="44" left="46" laneChangedFrom="0" laneChangedTo="0" flow="750.57"/>
        <edge id="-174398023#2" sampledSeconds="337.20" traveltime="7.32" overlapTraveltime="7.66" density="15.67" overlapDensity="16.41" laneDensity="7.84" occupancy="3.52" waitingTime="0.00" timeLoss="21.59" speed="12.94" speedRelative="0.93" departed="0" arrived="0" entered="44" left="44" laneChangedFrom="9" laneChangedTo="9" flow="730.04"/>
        <edge id="-174398023#3" sampledSeconds="65.51" traveltime="1.11" overlapTraveltime="1.48" density="17.73" overlapDensity="23.58" laneDensity="8.87" occupancy="3.99" waitingTime="0.00" timeLoss="10.19" speed="11.69" speedRelative="0.84" departed="2" arrived="1" entered="43" left="44" laneChangedFrom="0" laneChangedTo="0" flow="746.53"/>
        <edge id="-174398024#1" sampledSeconds="16.84" traveltime="3.03" overlapTraveltime="3.66" density="3.36" overlapDensity="4.14" laneDensity="1.68" occupancy="0.80" waitingTime="0.00" timeLoss="3.30" speed="6.35" speedRelative="0.76" departed="2" arrived="1" entered="3" left="4" laneChangedFrom="0" laneChangedTo="0" flow="76.92"/>
        <edge id="-174398024#2" sampledSeconds="18.98" traveltime="5.75" overlapTraveltime="6.33" density="1.76" overlapDensity="1.94" laneDensity="0.88" occupancy="0.40" waitingTime="0.00" timeLoss="1.32" speed="7.83" speedRelative="0.94" departed="0" arrived="0" entered="3" left="3" laneChangedFrom="0" laneChangedTo="0" flow="49.71"/>
        <edge id="-174398024#3" sampledSeconds="10.27" traveltime="2.83" overlapTraveltime="3.42" density="1.86" overlapDensity="2.24" laneDensity="0.93" occupancy="0.42" waitingTime="0.00" timeLoss="1.14" speed="7.48" speedRelative="0.90" departed="0" arrived="0" entered="3" left="3" laneChangedFrom="0" laneChangedTo="0" flow="49.99"/>
        <edge id="-182331870#0" sampledSeconds="0.00" departed="0" arrived="0" entered="0" left="0" laneChangedFrom="0" laneChangedTo="0"/>
        <edge id="-184852733#0" sampledSeconds="33.02" traveltime="8.13" overlapTraveltime="8.67" density="2.42" overlapDensity="2.56" laneDensity="2.42" occupancy="1.10" waitingTime="0.00" timeLoss="5.19" speed="7.37" speedRelative="0.88" departed="2" arrived="2" entered="2" left="2" laneChangedFrom="0" laneChangedTo="0" flow="64.33"/>
        <edge id="-184852733#1" sampledSeconds="30.43" traveltime="6.58" overlapTraveltime="7.61" density="2.68" overlapDensity="3.09" laneDensity="2.68" occupancy="1.24" waitingTime="0.00" timeLoss="6.47" speed="6.55" speedRelative="0.79" departed="0" arrived="0" entered="4" left="4" laneChangedFrom="0" laneChangedTo="0" flow="63.07"/>
        <edge id="-184852743#0" sampledSeconds="622.39" traveltime="31.59" overlapTraveltime="33.37" density="112.73" overlapDensity="115.00" laneDensity="56.37" occupancy="23.74" waitingTime="479.00" timeLoss="579.37" speed="0.88" speedRelative="0.06" departed="0" arrived="1" entered="23" left="14" laneChangedFrom="2" laneChangedTo="2" flow="358.04"/>
        <edge id="-184852743#1" sampledSeconds="329.37" traveltime="8.49" overlapTraveltime="13.57" density="62.94" overlapDensity="98.43" laneDensity="31.47" occupancy="16.14" waitingTime="212.00" timeLoss="294.72" speed="1.47" speedRelative="0.11" departed="0" arrived="0" entered="26" left="23" laneChangedFrom="2" laneChangedTo="2" flow="332.52"/>
        <edge id="-32836239" sampledSeconds="29.00" traveltime="9.24" overlapTraveltime="9.92" density="2.23" overlapDensity="2.40" laneDensity="1.12" occupancy="0.50" waitingTime="0.00" timeLoss="4.67" speed="6.06" speedRelative="0.73" departed="1" arrived="0" entered="2" left="3" laneChangedFrom="3" laneChangedTo="3" flow="48.71"/>
        <edge id="-744944960#0" sampledSeconds="107.45" traveltime="3.96" overlapTraveltime="4.31" density="10.13" overlapDensity="11.03" laneDensity="5.06" occupancy="2.24" waitingTime="0.00" timeLoss="19.80" speed="11.45" speedRelative="0.82" departed="1" arrived="0" entered="24" left="25" laneChangedFrom="2" laneChangedTo="2" flow="417.50"/>
        <edge id="-744944962#1" sampledSeconds="67.02" traveltime="2.37" overlapTraveltime="2.70" density="8.81" overlapDensity="10.03" laneDensity="4.41" occupancy="1.97" waitingTime="0.00" timeLoss="28.45" speed="13.08" speedRelative="0.59" departed="1" arrived="1" entered="24" left="24" laneChangedFrom="3" laneChangedTo="3" flow="414.96"/>
        <edge id="-744944967#1" sampledSeconds="390.38" traveltime="15.05" overlapTraveltime="16.27" density="40.83" overlapDensity="44.14" laneDensity="20.42" occupancy="9.52" waitingTime="206.00" timeLoss="338.39" speed="2.78" speedRelative="0.13" departed="0" arrived="0" entered="24" left="24" laneChangedFrom="0" laneChangedTo="0" flow="409.01"/>
        <edge id="-744949906#0" sampledSeconds="980.84" traveltime="21.01" overlapTraveltime="21.89" density="78.32" overlapDensity="80.77" laneDensity="39.16" occupancy="17.71" waitingTime="553.00" timeLoss="773.43" speed="2.76" speedRelative="0.20" departed="1" arrived="1" entered="47" left="38" laneChangedFrom="2" laneChangedTo="2" flow="778.79"/>
        <edge id="-744949906#1" sampledSeconds="96.26" traveltime="1.60" overlapTraveltime="2.05" density="21.32" overlapDensity="27.28" laneDensity="10.66" occupancy="4.92" waitingTime="4.00" timeLoss="25.57" speed="10.14" speedRelative="0.73" departed="0" arrived="0" entered="47" left="47" laneChangedFrom="3" laneChangedTo="3" flow="778.11"/>
        <edge id="-744949908" sampledSeconds="210.95" traveltime="6.52" overlapTraveltime="7.42" density="16.05" overlapDensity="18.19" laneDensity="8.02" occupancy="3.75" waitingTime="8.00" timeLoss="84.52" speed="7.81" speedRelative="0.56" departed="1" arrived="2" entered="29" left="26" laneChangedFrom="0" laneChangedTo="0" flow="451.20"/>
        <edge id="-744954673#1" sampledSeconds="0.00" departed="0" arrived="0" entered="0" left="0" laneChangedFrom="0" laneChangedTo="0"/>
        <edge id="-744954674" sampledSeconds="70.36" traveltime="16.73" overlapTraveltime="18.01" density="3.21" overlapDensity="3.46" laneDensity="3.21" occupancy="1.49" waitingTime="8.00" timeLoss="21.21" speed="5.45" speedRelative="0.65" departed="2" arrived="0" entered="2" left="4" laneChangedFrom="0" laneChangedTo="0" flow="63.03"/>
        <edge id="-744999975#1" sampledSeconds="33.83" traveltime="7.95" overlapTraveltime="9.07" density="2.90" overlapDensity="3.33" laneDensity="2.90" occupancy="1.39" waitingTime="0.00" timeLoss="7.55" speed="5.66" speedRelative="0.68" departed="3" arrived="0" entered="1" left="4" laneChangedFrom="0" laneChangedTo="0" flow="59.09"/>
        <edge id="-745055614#1" sampledSeconds="36.69" traveltime="6.43" overlapTraveltime="7.71" density="9.63" overlapDensity="11.73" laneDensity="4.82" occupancy="2.33" waitingTime="15.00" timeLoss="24.42" speed="2.45" speedRelative="0.29" departed="1" arrived="0" entered="4" left="5" laneChangedFrom="0" laneChangedTo="0" flow="85.00"/>
        <edge id="-745055614#2" sampledSeconds="21.94" traveltime="5.27" overlapTraveltime="5.83" density="2.65" overlapDensity="2.96" laneDensity="1.33" occupancy="0.61" waitingTime="0.00" timeLoss="3.92" speed="6.62" speedRelative="0.80" departed="2" arrived="0" entered="2" left="4" laneChangedFrom="0" laneChangedTo="0" flow="63.26"/>
        <edge id="-745055614#3" sampledSeconds="7.17" traveltime="2.96" overlapTraveltime="3.58" density="1.29" overlapDensity="1.56" laneDensity="0.64" occupancy="0.29" waitingTime="0.00" timeLoss="0.74" speed="7.15" speedRelative="0.86" departed="0" arrived="0" entered="2" left="2" laneChangedFrom="2" laneChangedTo="2" flow="33.20"/>
        <edge id="-745062638#1" sampledSeconds="178.21" traveltime="8.76" overlapTraveltime="9.64" density="22.50" overlapDensity="24.66" laneDensity="11.25" occupancy="5.22" waitingTime="53.00" timeLoss="122.31" speed="3.92" speedRelative="0.28" departed="3" arrived="0" entered="16" left="18" laneChangedFrom="0" laneChangedTo="0" flow="317.58"/>
        <edge id="-746423901#1" sampledSeconds="103.91" traveltime="1.98" overlapTraveltime="2.43" density="17.57" overlapDensity="21.49" laneDensity="8.79" occupancy="4.01" waitingTime="0.00" timeLoss="17.81" speed="11.04" speedRelative="0.79" departed="0" arrived="0" entered="43" left="43" laneChangedFrom="2" laneChangedTo="2" flow="698.52"/>
        <edge id="-746423901#2" sampledSeconds="129.45" traveltime="2.68" overlapTraveltime="3.06" density="21.70" overlapDensity="24.84" laneDensity="10.85" occupancy="4.73" waitingTime="0.00" timeLoss="42.10" speed="9.33" speedRelative="0.67" departed="4" arrived="0" entered="39" left="43" laneChangedFrom="5" laneChangedTo="5" flow="729.08"/>
        <edge id="-746423905#1" sampledSeconds="260.89" traveltime="28.82" overlapTraveltime="30.71" density="25.95" overlapDensity="26.63" laneDensity="12.97" occupancy="5.83" waitingTime="177.00" timeLoss="206.39" speed="1.62" speedRelative="0.19" departed="0" arrived="2" entered="10" left="4" laneChangedFrom="6" laneChangedTo="6" flow="151.03"/>
        <edge id="-746649485#0" sampledSeconds="229.42" traveltime="33.07" overlapTraveltime="34.28" density="12.00" overlapDensity="12.18" laneDensity="6.00" occupancy="2.69" waitingTime="153.00" timeLoss="180.37" speed="2.66" speedRelative="0.19" departed="1" arrived="2" entered="6" left="2" laneChangedFrom="0" laneChangedTo="0" flow="115.01"/>
        <edge id="-746653786#0" sampledSeconds="37.86" traveltime="7.22" overlapTraveltime="7.78" density="2.54" overlapDensity="2.74" laneDensity="1.27" occupancy="0.58" waitingTime="0.00" timeLoss="10.42" speed="8.77" speedRelative="0.63" departed="2" arrived="0" entered="3" left="5" laneChangedFrom="0" laneChangedTo="0" flow="80.03"/>
        <edge id="-747217017#0" sampledSeconds="86.15" traveltime="3.96" overlapTraveltime="4.31" density="8.63" overlapDensity="9.37" laneDensity="4.31" occupancy="1.88" waitingTime="0.00" timeLoss="18.63" speed="10.87" speedRelative="0.78" departed="0" arrived="0" entered="20" left="20" laneChangedFrom="7" laneChangedTo="7" flow="337.71"/>
        <edge id="-747447020#0" sampledSeconds="27.31" traveltime="0.48" overlapTraveltime="1.35" density="11.95" overlapDensity="35.75" laneDensity="5.98" occupancy="3.92" waitingTime="1.00" timeLoss="14.45" speed="5.93" speedRelative="0.43" departed="3" arrived="1" entered="19" left="21" laneChangedFrom="0" laneChangedTo="0" flow="254.97"/>
        <edge id="-747447020#1" sampledSeconds="73.44" traveltime="4.13" overlapTraveltime="4.67" density="15.73" overlapDensity="18.74" laneDensity="7.87" occupancy="3.78" waitingTime="0.00" timeLoss="47.67" speed="4.83" speedRelative="0.35" departed="16" arrived="0" entered="3" left="19" laneChangedFrom="2" laneChangedTo="2" flow="273.59"/>
        <edge id="-747853026#0" sampledSeconds="63.37" traveltime="2.84" overlapTraveltime="3.19" density="7.79" overlapDensity="8.76" laneDensity="3.89" occupancy="1.74" waitingTime="0.00" timeLoss="9.33" speed="11.87" speedRelative="0.85" departed="1" arrived="0" entered="19" left="20" laneChangedFrom="4" laneChangedTo="4" flow="332.84"/>
        <edge id="-747853027#0" sampledSeconds="284.80" traveltime="10.81" overlapTraveltime="11.83" density="26.33" overlapDensity="28.49" laneDensity="13.16" occupancy="6.07" waitingTime="102.00" timeLoss="190.24" speed="4.28" speedRelative="0.31" departed="1" arrived="0" entered="25" left="22" laneChangedFrom="8" laneChangedTo="8" flow="405.25"/>
        <edge id="-747853030" sampledSeconds="33.30" traveltime="1.65" overlapTraveltime="2.07" density="7.38" overlapDensity="9.21" laneDensity="3.69" occupancy="1.64" waitingTime="0.00" timeLoss="9.33" speed="10.24" speedRelative="0.74" departed="1" arrived="0" entered="16" left="16" laneChangedFrom="1" laneChangedTo="1" flow="272.11"/>
        <edge id="-747936760#1" sampledSeconds="56.06" traveltime="6.74" overlapTraveltime="7.48" density="4.80" overlapDensity="5.24" laneDensity="4.80" occupancy="2.17" waitingTime="0.00" timeLoss="7.96" speed="7.19" speedRelative="0.86" departed="1" arrived="0" entered="7" left="7" laneChangedFrom="0" laneChangedTo="0" flow="124.17"/>
        <edge id="-747939433#1" sampledSeconds="341.91" traveltime="15.27" overlapTraveltime="16.38" density="20.65" overlapDensity="22.08" laneDensity="10.33" occupancy="4.77" waitingTime="113.00" timeLoss="226.95" speed="4.63" speedRelative="0.33" departed="1" arrived="0" entered="20" left="20" laneChangedFrom="4" laneChangedTo="4" flow="344.37"/>
        <edge id="-749508471#0" sampledSeconds="16.60" traveltime="15.92" overlapTraveltime="16.60" density="0.59" overlapDensity="0.61" laneDensity="0.29" occupancy="0.13" waitingTime="0.00" timeLoss="1.25" speed="7.81" speedRelative="0.94" departed="0" arrived="0" entered="1" left="1" laneChangedFrom="1" laneChangedTo="1" flow="16.49"/>
        <edge id="-96487801#0" sampledSeconds="48.78" traveltime="6.93" overlapTraveltime="7.77" density="4.38" overlapDensity="4.82" laneDensity="4.38" occupancy="2.00" waitingTime="0.00" timeLoss="9.14" speed="6.58" speedRelative="0.79" departed="2" arrived="1" entered="5" left="5" laneChangedFrom="0" laneChangedTo="0" flow="103.71"/>
        <edge id="-96487801#1" sampledSeconds="28.46" traveltime="1.73" overlapTraveltime="2.68" density="11.46" overlapDensity="18.24" laneDensity="11.46" occupancy="5.42" waitingTime="2.00" timeLoss="10.85" speed="4.36" speedRelative="0.52" departed="1" arrived="0" entered="10" left="11" laneChangedFrom="0" laneChangedTo="0" flow="179.78"/>
        <edge id="-96487801#2" sampledSeconds="61.38" traveltime="4.80" overlapTraveltime="5.72" density="7.13" overlapDensity="8.50" laneDensity="7.13" occupancy="3.38" waitingTime="0.00" timeLoss="12.84" speed="6.60" speedRelative="0.79" departed="2" arrived="1" entered="9" left="10" laneChangedFrom="0" laneChangedTo="0" flow="169.48"/>
        <edge id="-96487801#3" sampledSeconds="23.83" traveltime="1.94" overlapTraveltime="2.55" density="7.36" overlapDensity="9.86" laneDensity="7.36" occupancy="3.32" waitingTime="0.00" timeLoss="6.21" speed="6.14" speedRelative="0.74" departed="2" arrived="1" entered="8" left="9" laneChangedFrom="0" laneChangedTo="0" flow="162.61"/>
        <edge id="-96487803#0" sampledSeconds="16.03" traveltime="7.31" overlapTraveltime="8.01" density="1.14" overlapDensity="1.25" laneDensity="1.14" occupancy="0.52" waitingTime="0.00" timeLoss="2.03" speed="7.96" speedRelative="0.96" departed="0" arrived="0" entered="2" left="2" laneChangedFrom="0" laneChangedTo="0" flow="32.57"/>
        <edge id="-96487803#1" sampledSeconds="26.75" traveltime="8.30" overlapTraveltime="9.49" density="2.32" overlapDensity="2.66" laneDensity="2.32" occupancy="1.10" waitingTime="0.00" timeLoss="7.28" speed="5.35" speedRelative="0.64" departed="2" arrived="1" entered="1" left="2" laneChangedFrom="0" laneChangedTo="0" flow="44.62"/>
        <edge id="-96487804#0" sampledSeconds="9.87" traveltime="3.04" overlapTraveltime="3.67" density="1.97" overlapDensity="2.31" laneDensity="1.97" occupancy="0.91" waitingTime="0.00" timeLoss="2.34" speed="6.59" speedRelative="0.79" departed="1" arrived="1" entered="2" left="2" laneChangedFrom="0" laneChangedTo="0" flow="46.78"/>
        <edge id="-96487804#2" sampledSeconds="6.37" traveltime="2.63" overlapTraveltime="3.18" density="1.12" overlapDensity="1.36" laneDensity="1.12" occupancy="0.51" waitingTime="0.00" timeLoss="0.54" speed="8.20" speedRelative="0.98" departed="0" arrived="0" entered="2" left="2" laneChangedFrom="0" laneChangedTo="0" flow="33.06"/>
        <edge id="-96489258#1" sampledSeconds="24.81" traveltime="4.52" overlapTraveltime="5.22" density="3.52" overlapDensity="4.00" laneDensity="1.76" occupancy="0.80" waitingTime="0.00" timeLoss="3.85" speed="6.35" speedRelative="0.76" departed="1" arrived="1" entered="4" left="4" laneChangedFrom="0" laneChangedTo="0" flow="80.43"/>
        <edge id="101376495#1" sampledSeconds="0.00" departed="0" arrived="0" entered="0" left="0" laneChangedFrom="0" laneChangedTo="0"/>
        <edge id="1212501346" sampledSeconds="311.61" traveltime="8.72" overlapTraveltime="9.40" density="58.69" overlapDensity="63.20" laneDensity="14.67" occupancy="6.70" waitingTime="167.00" timeLoss="269.72" speed="2.90" speedRelative="0.10" departed="3" arrived="0" entered="31" left="33" laneChangedFrom="0" laneChangedTo="0" flow="612.19"/>
        <edge id="1212501347#0" sampledSeconds="561.01" traveltime="30.02" overlapTraveltime="31.69" density="82.25" overlapDensity="84.24" laneDensity="20.56" occupancy="9.25" waitingTime="415.00" timeLoss="513.01" speed="1.11" speedRelative="0.08" departed="1" arrived="0" entered="19" left="14" laneChangedFrom="0" laneChangedTo="0" flow="328.83"/>
        <edge id="1212504575" sampledSeconds="54.64" traveltime="1.82" overlapTraveltime="2.20" density="9.57" overlapDensity="11.59" laneDensity="4.79" occupancy="2.18" waitingTime="0.00" timeLoss="6.58" speed="11.91" speedRelative="0.86" departed="1" arrived="1" entered="24" left="24" laneChangedFrom="0" laneChangedTo="0" flow="410.43"/>
        <edge id="1279681436#0" sampledSeconds="165.52" traveltime="5.58" overlapTraveltime="6.38" density="27.63" overlapDensity="32.85" laneDensity="27.63" occupancy="13.59" waitingTime="1.00" timeLoss="105.26" speed="4.35" speedRelative="0.31" departed="32" arrived="0" entered="0" left="31" laneChangedFrom="0" laneChangedTo="0" flow="432.16"/>
        <edge id="1280054791" sampledSeconds="47.75" traveltime="7.66" overlapTraveltime="8.49" density="3.65" overlapDensity="3.95" laneDensity="1.83" occupancy="0.80" waitingTime="0.00" timeLoss="6.09" speed="7.09" speedRelative="0.85" departed="0" arrived="2" entered="7" left="3" laneChangedFrom="0" laneChangedTo="0" flow="93.31"/>
        <edge id="174398008#1" sampledSeconds="10.36" traveltime="2.23" overlapTraveltime="2.83" density="2.67" overlapDensity="3.38" laneDensity="2.67" occupancy="1.25" waitingTime="0.00" timeLoss="2.07" speed="6.58" speedRelative="0.79" departed="1" arrived="2" entered="3" left="2" laneChangedFrom="0" laneChangedTo="0" flow="63.18"/>
        <edge id="174398008#2" sampledSeconds="20.95" traveltime="9.98" overlapTraveltime="10.68" density="1.22" overlapDensity="1.28" laneDensity="1.22" occupancy="0.55" waitingTime="0.00" timeLoss="1.73" speed="7.47" speedRelative="0.90" departed="0" arrived="1" entered="2" left="1" laneChangedFrom="0" laneChangedTo="0" flow="32.86"/>
        <edge id="174398011#1" sampledSeconds="24.29" traveltime="7.98" overlapTraveltime="8.56" density="2.01" overlapDensity="2.16" laneDensity="2.01" occupancy="0.92" waitingTime="0.00" timeLoss="4.98" speed="6.56" speedRelative="0.79" departed="2" arrived="0" entered="1" left="3" laneChangedFrom="0" laneChangedTo="0" flow="47.40"/>
        <edge id="174398011#3" sampledSeconds="13.21" traveltime="5.17" overlapTraveltime="5.77" density="1.43" overlapDensity="1.56" laneDensity="1.43" occupancy="0.63" waitingTime="0.00" timeLoss="0.99" speed="7.53" speedRelative="0.90" departed="0" arrived="1" entered="3" left="1" laneChangedFrom="0" laneChangedTo="0" flow="38.79"/>
        <edge id="174398011#4" sampledSeconds="4.35" traveltime="3.62" overlapTraveltime="4.35" density="0.63" overlapDensity="0.75" laneDensity="0.63" occupancy="0.29" waitingTime="0.00" timeLoss="0.49" speed="7.16" speedRelative="0.86" departed="0" arrived="0" entered="1" left="1" laneChangedFrom="0" laneChangedTo="0" flow="16.11"/>
        <edge id="174398023#1" sampledSeconds="14.91" traveltime="1.01" overlapTraveltime="1.36" density="3.91" overlapDensity="5.25" laneDensity="1.96" occupancy="0.88" waitingTime="0.00" timeLoss="0.74" speed="12.97" speedRelative="0.93" departed="0" arrived="0" entered="11" left="11" laneChangedFrom="0" laneChangedTo="0" flow="182.59"/>
        <edge id="174398023#2" sampledSeconds="83.00" traveltime="7.66" overlapTraveltime="8.04" density="3.88" overlapDensity="4.04" laneDensity="1.94" occupancy="0.87" waitingTime="0.00" timeLoss="6.77" speed="12.34" speedRelative="0.89" departed="1" arrived="0" entered="11" left="9" laneChangedFrom="0" laneChangedTo="0" flow="172.10"/>
        <edge id="174398023#3" sampledSeconds="15.92" traveltime="1.19" overlapTraveltime="1.77" density="3.86" overlapDensity="5.73" laneDensity="1.93" occupancy="0.94" waitingTime="0.00" timeLoss="2.53" speed="9.78" speedRelative="0.70" departed="0" arrived="0" entered="9" left="9" laneChangedFrom="0" laneChangedTo="0" flow="135.83"/>
        <edge id="174398024#1" sampledSeconds="14.85" traveltime="2.51" overlapTraveltime="3.05" density="3.08" overlapDensity="3.65" laneDensity="1.54" occupancy="0.66" waitingTime="0.00" timeLoss="1.90" speed="7.61" speedRelative="0.91" departed="0" arrived="1" entered="5" left="4" laneChangedFrom="0" laneChangedTo="0" flow="84.47"/>
        <edge id="174398024#2" sampledSeconds="45.44" traveltime="6.21" overlapTraveltime="6.76" density="4.25" overlapDensity="4.65" laneDensity="2.12" occupancy="0.98" waitingTime="0.00" timeLoss="7.28" speed="7.33" speedRelative="0.88" departed="3" arrived="0" entered="4" left="7" laneChangedFrom="0" laneChangedTo="0" flow="112.14"/>
        <edge id="174398024#3" sampledSeconds="78.07" traveltime="9.04" overlapTraveltime="9.98" density="15.35" overlapDensity="17.04" laneDensity="7.68" occupancy="3.56" waitingTime="31.00" timeLoss="53.60" speed="2.57" speedRelative="0.31" departed="1" arrived="0" entered="7" left="8" laneChangedFrom="0" laneChangedTo="0" flow="141.78"/>
        <edge id="182331870#0" sampledSeconds="60.86" traveltime="19.62" overlapTraveltime="20.78" density="2.11" overlapDensity="2.23" laneDensity="2.11" occupancy="0.97" waitingTime="0.00" timeLoss="11.24" speed="6.26" speedRelative="0.75" departed="2" arrived="0" entered="1" left="3" laneChangedFrom="0" laneChangedTo="0" flow="47.48"/>
        <edge id="184852733#0" sampledSeconds="9.23" traveltime="9.22" overlapTraveltime="9.95" density="0.66" overlapDensity="0.71" laneDensity="0.66" occupancy="0.31" waitingTime="0.00" timeLoss="2.65" speed="6.45" speedRelative="0.77" departed="1" arrived="0" entered="0" left="1" laneChangedFrom="0" laneChangedTo="0" flow="15.26"/>
        <edge id="184852733#1" sampledSeconds="22.67" traveltime="6.85" overlapTraveltime="7.76" density="2.09" overlapDensity="2.31" laneDensity="2.09" occupancy="0.93" waitingTime="1.00" timeLoss="6.39" speed="6.42" speedRelative="0.77" departed="0" arrived="2" entered="3" left="1" laneChangedFrom="0" laneChangedTo="0" flow="48.29"/>
        <edge id="184852741#1" sampledSeconds="88.48" traveltime="4.24" overlapTraveltime="4.73" density="7.98" overlapDensity="8.85" laneDensity="3.99" occupancy="1.80" waitingTime="0.00" timeLoss="18.16" speed="10.69" speedRelative="0.77" departed="2" arrived="2" entered="17" left="17" laneChangedFrom="1" laneChangedTo="1" flow="306.92"/>
        <edge id="184852743#0" sampledSeconds="34.47" traveltime="2.72" overlapTraveltime="3.18" density="5.55" overlapDensity="6.37" laneDensity="2.78" occupancy="1.19" waitingTime="0.00" timeLoss="10.77" speed="9.26" speedRelative="0.67" departed="0" arrived="1" entered="12" left="10" laneChangedFrom="3" laneChangedTo="3" flow="185.11"/>
        <edge id="184852743#1" sampledSeconds="55.06" traveltime="4.53" overlapTraveltime="5.34" density="14.07" overlapDensity="16.45" laneDensity="7.03" occupancy="3.31" waitingTime="15.00" timeLoss="38.89" speed="3.73" speedRelative="0.27" departed="2" arrived="0" entered="9" left="10" laneChangedFrom="1" laneChangedTo="1" flow="188.90"/>
        <edge id="23370756" sampledSeconds="189.69" traveltime="16.93" overlapTraveltime="17.65" density="36.42" overlapDensity="39.68" laneDensity="12.14" occupancy="5.74" waitingTime="99.00" timeLoss="167.35" speed="1.50" speedRelative="0.11" departed="13" arrived="0" entered="0" left="13" laneChangedFrom="1" laneChangedTo="1" flow="197.04"/>
        <edge id="272521440#0" sampledSeconds="86.85" traveltime="16.49" overlapTraveltime="17.37" density="4.23" overlapDensity="4.46" laneDensity="2.12" occupancy="0.96" waitingTime="18.00" timeLoss="27.16" speed="5.43" speedRelative="0.65" departed="0" arrived="0" entered="5" left="5" laneChangedFrom="0" laneChangedTo="0" flow="82.70"/>
        <edge id="27788646#0" sampledSeconds="78.58" traveltime="1.37" overlapTraveltime="1.64" density="12.69" overlapDensity="15.12" laneDensity="4.23" occupancy="1.89" waitingTime="0.00" timeLoss="16.13" speed="17.38" speedRelative="0.78" departed="0" arrived="0" entered="48" left="48" laneChangedFrom="0" laneChangedTo="0" flow="794.01"/>
        <edge id="27788646#1" sampledSeconds="48.17" traveltime="0.62" overlapTraveltime="1.00" density="13.20" overlapDensity="21.53" laneDensity="4.40" occupancy="2.22" waitingTime="2.00" timeLoss="15.66" speed="14.76" speedRelative="0.66" departed="0" arrived="2" entered="48" left="46" laneChangedFrom="0" laneChangedTo="0" flow="701.39"/>
        <edge id="27788646#2" sampledSeconds="157.63" traveltime="2.71" overlapTraveltime="3.36" density="21.61" overlapDensity="26.79" laneDensity="7.20" occupancy="3.40" waitingTime="23.00" timeLoss="90.19" speed="9.40" speedRelative="0.42" departed="1" arrived="0" entered="46" left="47" laneChangedFrom="0" laneChangedTo="0" flow="730.85"/>
        <edge id="27788646#3" sampledSeconds="149.77" traveltime="2.05" overlapTraveltime="3.08" density="32.88" overlapDensity="49.26" laneDensity="10.96" occupancy="5.50" waitingTime="31.00" timeLoss="85.87" speed="6.01" speedRelative="0.27" departed="3" arrived="1" entered="47" left="48" laneChangedFrom="0" laneChangedTo="0" flow="711.03"/>