<?xml version="1.0" encoding="UTF-8"?>

<!-- generated on 2026-01-13T02:03:00.425123+08:00 by Eclipse SUMO GUI 1.25.0
<sumoConfiguration xmlns:xsi="http://www.w3.org/2001/XMLSchema-instance" xsi:noNamespaceSchemaLocation="http://sumo.dlr.de/xsd/sumoConfiguration.xsd">

    <input>
        <net-file value="final_map.net.xml"/>
        <route-files value="trips_high.xml"/>
        <additional-files value="osm.poly.xml.gz,output.add.xml,vtypes.add.xml"/>
    </input>

    <output>
        <summary-output value="data\data_selfish_high_summary.xml"/>
        <tripinfo-output value="data\data_selfish_high_tripinfo.xml"/>
        <statistic-output value="data\data_selfish_high_stats.xml"/>
    </output>

    <processing>
        <ignore-route-errors value="true"/>
        <time-to-teleport value="300"/>
        <tls.actuated.jam-threshold value="30"/>
    </processing>

    <routing>
        <device.rerouting.adaptation-steps value="18"/>
        <device.rerouting.adaptation-interval value="10"/>
    </routing>

    <report>
        <verbose value="true"/>
        <duration-log.statistics value="true"/>
        <no-step-log value="true"/>
    </report>

    <emissions>
        <device.emissions.probability value="1.0"/>
    </emissions>

    <gui_only>
        <gui-settings-file value="osm.view.xml"/>
    </gui_only>

</sumoConfiguration>
-->

<meandata xmlns:xsi="http://www.w3.org/2001/XMLSchema-instance" xsi:noNamespaceSchemaLocation="http://sumo.dlr.de/xsd/meandata_file.xsd">
    <interval begin="0.00" end="1453.00" id="wizard_example">
        <edge id="-101376495#1" sampledSeconds="0.00" departed="0" arrived="0" entered="0" left="0" laneChangedFrom="0" laneChangedTo="0"/>
        <edge id="-1212504575" sampledSeconds="266.00" traveltime="1.88" overlapTraveltime="2.25" density="7.04" overlapDensity="8.43" laneDensity="3.52" occupancy="1.60" waitingTime="0.00" timeLoss="42.10" speed="11.66" speedRelative="0.84" departed="9" arrived="3" entered="111" left="117" laneChangedFrom="0" laneChangedTo="0" flow="295.83"/>
        <edge id="-1279681436#0" sampledSeconds="211.08" traveltime="2.21" overlapTraveltime="2.59" density="5.57" overlapDensity="6.26" laneDensity="5.57" occupancy="2.38" waitingTime="0.00" timeLoss="44.52" speed="10.71" speedRelative="0.77" departed="0" arrived="85" entered="85" left="0" laneChangedFrom="0" laneChangedTo="0" flow="214.68"/>
        <edge id="-174398008#1" sampledSeconds="39.23" traveltime="2.22" overlapTraveltime="2.87" density="1.48" overlapDensity="1.91" laneDensity="1.48" occupancy="0.67" waitingTime="0.00" timeLoss="7.14" speed="6.48" speedRelative="0.78" departed="1" arrived="6" entered="13" left="8" laneChangedFrom="0" laneChangedTo="0" flow="34.49"/>
        <edge id="-174398008#2" sampledSeconds="194.27" traveltime="10.35" overlapTraveltime="10.98" density="1.72" overlapDensity="1.81" laneDensity="1.72" occupancy="0.78" waitingTime="0.00" timeLoss="20.74" speed="7.13" speedRelative="0.86" departed="3" arrived="5" entered="15" left="13" laneChangedFrom="0" laneChangedTo="0" flow="44.16"/>
        <edge id="-174398011#1" sampledSeconds="228.94" traveltime="7.95" overlapTraveltime="8.73" density="2.78" overlapDensity="3.05" laneDensity="2.78" occupancy="1.28" waitingTime="5.00" timeLoss="45.27" speed="6.44" speedRelative="0.77" departed="8" arrived="5" entered="19" left="22" laneChangedFrom="0" laneChangedTo="0" flow="64.48"/>
        <edge id="-174398011#3" sampledSeconds="126.77" traveltime="5.17" overlapTraveltime="5.76" density="2.01" overlapDensity="2.24" laneDensity="2.01" occupancy="0.90" waitingTime="0.00" timeLoss="10.36" speed="7.54" speedRelative="0.91" departed="0" arrived="3" entered="22" left="19" laneChangedFrom="0" laneChangedTo="0" flow="54.58"/>
        <edge id="-174398011#4" sampledSeconds="142.12" traveltime="3.99" overlapTraveltime="4.59" density="3.21" overlapDensity="3.67" laneDensity="3.21" occupancy="1.42" waitingTime="0.00" timeLoss="25.31" speed="6.80" speedRelative="0.82" departed="5" arrived="10" entered="27" left="22" laneChangedFrom="0" laneChangedTo="0" flow="78.47"/>
        <edge id="-174398023#1" sampledSeconds="1006.19" traveltime="4.40" overlapTraveltime="5.03" density="46.23" overlapDensity="52.94" laneDensity="23.11" occupancy="10.65" waitingTime="574.00" timeLoss="745.50" speed="3.49" speedRelative="0.25" departed="4" arrived="2" entered="197" left="199" laneChangedFrom="5" laneChangedTo="5" flow="581.27"/>
        <edge id="-174398023#2" sampledSeconds="2610.54" traveltime="12.65" overlapTraveltime="13.13" density="18.29" overlapDensity="18.98" laneDensity="9.14" occupancy="4.13" waitingTime="815.00" timeLoss="1192.60" speed="7.55" speedRelative="0.54" departed="3" arrived="2" entered="196" left="197" laneChangedFrom="44" laneChangedTo="44" flow="497.26"/>
        <edge id="-174398023#3" sampledSeconds="304.34" traveltime="1.17" overlapTraveltime="1.55" density="12.37" overlapDensity="16.36" laneDensity="6.18" occupancy="2.74" waitingTime="0.00" timeLoss="60.87" speed="11.13" speedRelative="0.80" departed="6" arrived="2" entered="192" left="196" laneChangedFrom="3" laneChangedTo="3" flow="495.84"/>
        <edge id="-174398024#1" sampledSeconds="68.16" traveltime="2.80" overlapTraveltime="3.42" density="2.06" overlapDensity="2.50" laneDensity="1.03" occupancy="0.47" waitingTime="0.00" timeLoss="9.70" speed="6.80" speedRelative="0.82" departed="4" arrived="5" entered="17" left="16" laneChangedFrom="0" laneChangedTo="0" flow="50.45"/>
        <edge id="-174398024#2" sampledSeconds="139.40" traveltime="6.13" overlapTraveltime="6.73" density="1.96" overlapDensity="2.13" laneDensity="0.98" occupancy="0.44" waitingTime="0.00" timeLoss="13.42" speed="7.37" speedRelative="0.88" departed="1" arrived="4" entered="20" left="17" laneChangedFrom="1" laneChangedTo="1" flow="51.88"/>
        <edge id="-174398024#3" sampledSeconds="90.34" traveltime="2.92" overlapTraveltime="3.54" density="2.46" overlapDensity="2.95" laneDensity="1.23" occupancy="0.55" waitingTime="0.00" timeLoss="9.29" speed="7.23" speedRelative="0.87" departed="1" arrived="6" entered="25" left="20" laneChangedFrom="0" laneChangedTo="0" flow="63.99"/>
        <edge id="-182331870#0" sampledSeconds="291.77" traveltime="16.74" overlapTraveltime="17.35" density="1.57" overlapDensity="1.62" laneDensity="1.57" occupancy="0.71" waitingTime="0.00" timeLoss="26.73" speed="7.39" speedRelative="0.89" departed="4" arrived="2" entered="13" left="15" laneChangedFrom="0" laneChangedTo="0" flow="41.76"/>
        <edge id="-184852733#0" sampledSeconds="192.18" traveltime="8.30" overlapTraveltime="8.91" density="2.09" overlapDensity="2.23" laneDensity="2.09" occupancy="0.94" waitingTime="0.00" timeLoss="21.74" speed="7.17" speedRelative="0.86" departed="4" arrived="5" entered="18" left="17" laneChangedFrom="0" laneChangedTo="0" flow="53.87"/>
        <edge id="-184852733#1" sampledSeconds="209.83" traveltime="6.66" overlapTraveltime="7.43" density="2.88" overlapDensity="3.19" laneDensity="2.88" occupancy="1.30" waitingTime="0.00" timeLoss="37.76" speed="6.71" speedRelative="0.81" departed="5" arrived="8" entered="24" left="21" laneChangedFrom="0" laneChangedTo="0" flow="69.53"/>
        <edge id="-184852743#0" sampledSeconds="3918.76" traveltime="20.29" overlapTraveltime="21.04" density="104.29" overlapDensity="108.14" laneDensity="52.15" occupancy="22.13" waitingTime="2746.00" timeLoss="3478.50" speed="1.40" speedRelative="0.10" departed="4" arrived="6" entered="183" left="181" laneChangedFrom="9" laneChangedTo="9" flow="525.29"/>
        <edge id="-184852743#1" sampledSeconds="2192.55" traveltime="7.67" overlapTraveltime="11.67" density="64.37" overlapDensity="97.86" laneDensity="32.19" occupancy="16.29" waitingTime="1387.00" timeLoss="1922.55" speed="1.71" speedRelative="0.12" departed="3" arrived="6" entered="186" left="183" laneChangedFrom="15" laneChangedTo="15" flow="395.44"/>
        <edge id="-32836239" sampledSeconds="279.32" traveltime="7.91" overlapTraveltime="8.51" density="3.22" overlapDensity="3.46" laneDensity="1.61" occupancy="0.72" waitingTime="0.00" timeLoss="35.33" speed="7.06" speedRelative="0.85" departed="2" arrived="1" entered="31" left="32" laneChangedFrom="13" laneChangedTo="13" flow="81.74"/>
        <edge id="-744944960#0" sampledSeconds="518.97" traveltime="4.14" overlapTraveltime="4.50" density="7.33" overlapDensity="7.95" laneDensity="3.66" occupancy="1.62" waitingTime="0.00" timeLoss="107.00" speed="10.99" speedRelative="0.79" departed="6" arrived="5" entered="110" left="111" laneChangedFrom="16" laneChangedTo="16" flow="289.74"/>
        <edge id="-744944962#1" sampledSeconds="585.76" traveltime="5.13" overlapTraveltime="6.19" density="10.89" overlapDensity="13.09" laneDensity="5.45" occupancy="2.67" waitingTime="141.00" timeLoss="434.99" speed="5.70" speedRelative="0.26" departed="7" arrived="5" entered="89" left="91" laneChangedFrom="26" laneChangedTo="26" flow="223.69"/>
        <edge id="-744944967#1" sampledSeconds="4168.55" traveltime="42.42" overlapTraveltime="44.57" density="67.09" overlapDensity="70.39" laneDensity="33.54" occupancy="15.33" waitingTime="3085.84" timeLoss="3958.05" speed="1.02" speedRelative="0.05" departed="3" arrived="6" entered="91" left="88" laneChangedFrom="0" laneChangedTo="0" flow="245.27"/>
        <edge id="-744949906#0" sampledSeconds="8316.47" traveltime="37.84" overlapTraveltime="38.62" density="100.23" overlapDensity="102.28" laneDensity="50.11" occupancy="22.59" waitingTime="5869.00" timeLoss="7300.36" speed="1.57" speedRelative="0.11" departed="8" arrived="6" entered="208" left="210" laneChangedFrom="10" laneChangedTo="10" flow="564.86"/>
        <edge id="-744949906#1" sampledSeconds="1633.25" traveltime="7.13" overlapTraveltime="7.80" density="63.09" overlapDensity="69.13" laneDensity="31.55" occupancy="12.39" waitingTime="948.00" timeLoss="1320.21" speed="2.66" speedRelative="0.19" departed="3" arrived="2" entered="207" left="208" laneChangedFrom="16" laneChangedTo="16" flow="604.21"/>
        <edge id="-744949908" sampledSeconds="899.44" traveltime="6.52" overlapTraveltime="7.40" density="10.21" overlapDensity="11.58" laneDensity="5.10" occupancy="2.39" waitingTime="78.00" timeLoss="363.08" speed="7.83" speedRelative="0.56" departed="5" arrived="6" entered="117" left="116" laneChangedFrom="0" laneChangedTo="0" flow="287.59"/>
        <edge id="-744954673#1" sampledSeconds="0.00" departed="0" arrived="0" entered="0" left="0" laneChangedFrom="0" laneChangedTo="0"/>
        <edge id="-744954674" sampledSeconds="706.95" traveltime="22.60" overlapTraveltime="23.83" density="4.93" overlapDensity="5.19" laneDensity="4.93" occupancy="2.25" waitingTime="229.00" timeLoss="354.64" speed="4.12" speedRelative="0.49" departed="6" arrived="5" entered="24" left="25" laneChangedFrom="0" laneChangedTo="0" flow="73.14"/>
        <edge id="-744999975#1" sampledSeconds="268.42" traveltime="6.55" overlapTraveltime="7.41" density="3.51" overlapDensity="3.94" laneDensity="3.51" occupancy="1.61" waitingTime="0.00" timeLoss="39.17" speed="6.93" speedRelative="0.83" departed="6" arrived="10" entered="31" left="27" laneChangedFrom="0" laneChangedTo="0" flow="87.47"/>
        <edge id="-745055614#1" sampledSeconds="630.48" traveltime="8.06" overlapTraveltime="9.19" density="26.32" overlapDensity="30.11" laneDensity="13.16" occupancy="6.13" waitingTime="292.00" timeLoss="474.63" speed="2.06" speedRelative="0.25" departed="5" arrived="6" entered="65" left="64" laneChangedFrom="4" laneChangedTo="4" flow="194.95"/>
        <edge id="-745055614#2" sampledSeconds="401.07" traveltime="4.98" overlapTraveltime="5.72" density="7.07" overlapDensity="8.09" laneDensity="3.53" occupancy="1.62" waitingTime="8.00" timeLoss="73.77" speed="6.76" speedRelative="0.81" departed="5" arrived="6" entered="66" left="65" laneChangedFrom="2" laneChangedTo="2" flow="171.90"/>
        <edge id="-745055614#3" sampledSeconds="253.28" traveltime="3.09" overlapTraveltime="3.69" density="6.94" overlapDensity="8.25" laneDensity="3.47" occupancy="1.53" waitingTime="0.00" timeLoss="40.85" speed="6.95" speedRelative="0.83" departed="5" arrived="4" entered="65" left="66" laneChangedFrom="23" laneChangedTo="23" flow="173.57"/>
        <edge id="-745062638#1" sampledSeconds="1357.09" traveltime="12.71" overlapTraveltime="13.91" density="25.64" overlapDensity="28.05" laneDensity="12.82" occupancy="5.98" waitingTime="639.00" timeLoss="1052.09" speed="2.72" speedRelative="0.20" departed="10" arrived="4" entered="89" left="95" laneChangedFrom="0" laneChangedTo="0" flow="250.78"/>
        <edge id="-746423901#1" sampledSeconds="599.17" traveltime="2.39" overlapTraveltime="3.24" density="13.68" overlapDensity="18.51" laneDensity="6.84" occupancy="3.26" waitingTime="92.00" timeLoss="231.78" speed="8.27" speedRelative="0.60" departed="5" arrived="3" entered="181" left="183" laneChangedFrom="25" laneChangedTo="25" flow="406.94"/>
        <edge id="-746423901#2" sampledSeconds="570.70" traveltime="2.73" overlapTraveltime="3.13" density="14.22" overlapDensity="16.35" laneDensity="7.11" occupancy="3.08" waitingTime="0.00" timeLoss="195.90" speed="9.10" speedRelative="0.66" departed="10" arrived="3" entered="174" left="181" laneChangedFrom="49" laneChangedTo="49" flow="465.91"/>
        <edge id="-746423905#1" sampledSeconds="976.83" traveltime="31.70" overlapTraveltime="33.22" density="14.30" overlapDensity="14.89" laneDensity="7.15" occupancy="3.26" waitingTime="630.00" timeLoss="792.68" speed="1.49" speedRelative="0.18" departed="4" arrived="7" entered="26" left="23" laneChangedFrom="15" laneChangedTo="15" flow="76.95"/>
        <edge id="-746649485#0" sampledSeconds="1036.49" traveltime="32.33" overlapTraveltime="33.84" density="7.85" overlapDensity="8.22" laneDensity="3.93" occupancy="1.79" waitingTime="671.00" timeLoss="825.36" speed="2.70" speedRelative="0.19" departed="7" arrived="8" entered="24" left="23" laneChangedFrom="8" laneChangedTo="8" flow="76.28"/>
        <edge id="-746653786#0" sampledSeconds="268.63" traveltime="6.31" overlapTraveltime="6.99" density="2.62" overlapDensity="2.90" laneDensity="1.31" occupancy="0.60" waitingTime="0.00" timeLoss="58.26" speed="9.77" speedRelative="0.70" departed="7" arrived="3" entered="32" left="36" laneChangedFrom="0" laneChangedTo="0" flow="92.20"/>
        <edge id="-747217017#0" sampledSeconds="676.70" traveltime="3.97" overlapTraveltime="4.32" density="10.10" overlapDensity="11.00" laneDensity="5.05" occupancy="2.21" waitingTime="0.00" timeLoss="149.43" speed="10.85" speedRelative="0.78" departed="3" arrived="5" entered="154" left="152" laneChangedFrom="42" laneChangedTo="42" flow="394.43"/>
        <edge id="-747447020#0" sampledSeconds="139.41" traveltime="0.49" overlapTraveltime="1.29" density="10.20" overlapDensity="27.26" laneDensity="5.10" occupancy="2.93" waitingTime="13.00" timeLoss="63.48" speed="6.24" speedRelative="0.45" departed="6" arrived="6" entered="107" left="107" laneChangedFrom="0" laneChangedTo="0" flow="228.91"/>
        <edge id="-747447020#1" sampledSeconds="416.50" traveltime="4.12" overlapTraveltime="4.67" density="13.32" overlapDensity="15.87" laneDensity="6.66" occupancy="3.17" waitingTime="0.00" timeLoss="265.94" speed="4.83" speedRelative="0.35" departed="87" arrived="0" entered="20" left="107" laneChangedFrom="9" laneChangedTo="9" flow="231.83"/>
        <edge id="-747853026#0" sampledSeconds="327.30" traveltime="2.91" overlapTraveltime="3.28" density="5.99" overlapDensity="6.76" laneDensity="3.00" occupancy="1.35" waitingTime="0.00" timeLoss="50.16" speed="11.54" speedRelative="0.83" departed="8" arrived="1" entered="93" left="100" laneChangedFrom="19" laneChangedTo="19" flow="249.08"/>
        <edge id="-747853027#0" sampledSeconds="1293.96" traveltime="9.51" overlapTraveltime="10.39" density="17.70" overlapDensity="19.33" laneDensity="8.85" occupancy="4.09" waitingTime="386.00" timeLoss="808.86" speed="4.86" speedRelative="0.35" departed="5" arrived="3" entered="120" left="122" laneChangedFrom="26" laneChangedTo="26" flow="309.95"/>
        <edge id="-747853030" sampledSeconds="213.45" traveltime="1.88" overlapTraveltime="2.33" density="7.06" overlapDensity="8.82" laneDensity="3.53" occupancy="1.58" waitingTime="0.00" timeLoss="73.98" speed="9.07" speedRelative="0.65" departed="7" arrived="4" entered="86" left="89" laneChangedFrom="4" laneChangedTo="4" flow="230.62"/>
        <edge id="-747936760#1" sampledSeconds="375.44" traveltime="7.90" overlapTraveltime="8.65" density="4.80" overlapDensity="5.24" laneDensity="4.80" occupancy="2.18" waitingTime="32.00" timeLoss="88.54" speed="6.22" speedRelative="0.75" departed="5" arrived="5" entered="39" left="39" laneChangedFrom="0" laneChangedTo="0" flow="107.47"/>
        <edge id="-747939433#1" sampledSeconds="2533.11" traveltime="15.30" overlapTraveltime="16.27" density="22.98" overlapDensity="24.43" laneDensity="11.49" occupancy="5.29" waitingTime="674.00" timeLoss="1675.80" speed="4.66" speedRelative="0.34" departed="4" arrived="2" entered="152" left="154" laneChangedFrom="37" laneChangedTo="37" flow="385.68"/>
        <edge id="-749508471#0" sampledSeconds="402.92" traveltime="16.92" overlapTraveltime="17.63" density="2.13" overlapDensity="2.22" laneDensity="1.06" occupancy="0.48" waitingTime="0.00" timeLoss="42.08" speed="7.36" speedRelative="0.88" departed="4" arrived="2" entered="19" left="21" laneChangedFrom="3" laneChangedTo="3" flow="56.29"/>
        <edge id="-96487801#0" sampledSeconds="198.02" traveltime="6.80" overlapTraveltime="7.55" density="2.64" overlapDensity="2.92" laneDensity="2.64" occupancy="1.21" waitingTime="0.00" timeLoss="36.42" speed="6.77" speedRelative="0.81" departed="7" arrived="2" entered="20" left="25" laneChangedFrom="0" laneChangedTo="0" flow="64.42"/>
        <edge id="-96487801#1" sampledSeconds="128.06" traveltime="1.55" overlapTraveltime="2.50" density="7.32" overlapDensity="12.26" laneDensity="7.32" occupancy="3.71" waitingTime="6.00" timeLoss="43.88" speed="4.68" speedRelative="0.56" departed="9" arrived="2" entered="46" left="53" laneChangedFrom="0" laneChangedTo="0" flow="123.17"/>
        <edge id="-96487801#2" sampledSeconds="257.69" traveltime="4.48" overlapTraveltime="5.22" density="4.59" overlapDensity="5.33" laneDensity="4.59" occupancy="2.10" waitingTime="0.00" timeLoss="34.66" speed="7.24" speedRelative="0.87" departed="3" arrived="4" entered="47" left="46" laneChangedFrom="0" laneChangedTo="0" flow="119.69"/>
        <edge id="-96487801#3" sampledSeconds="106.98" traveltime="1.64" overlapTraveltime="2.23" density="4.84" overlapDensity="6.61" laneDensity="4.84" occupancy="2.14" waitingTime="0.00" timeLoss="17.45" speed="7.00" speedRelative="0.84" departed="3" arrived="2" entered="46" left="47" laneChangedFrom="0" laneChangedTo="0" flow="121.96"/>
        <edge id="-96487803#0" sampledSeconds="122.82" traveltime="8.03" overlapTraveltime="8.82" density="1.30" overlapDensity="1.43" laneDensity="1.30" occupancy="0.59" waitingTime="0.00" timeLoss="17.69" speed="7.23" speedRelative="0.87" departed="1" arrived="2" entered="13" left="12" laneChangedFrom="0" laneChangedTo="0" flow="33.79"/>
        <edge id="-96487803#1" sampledSeconds="280.43" traveltime="7.60" overlapTraveltime="8.53" density="3.73" overlapDensity="4.17" laneDensity="3.73" occupancy="1.72" waitingTime="16.00" timeLoss="70.44" speed="5.95" speedRelative="0.71" departed="10" arrived="9" entered="24" left="25" laneChangedFrom="0" laneChangedTo="0" flow="79.96"/>
        <edge id="-96487804#0" sampledSeconds="81.48" traveltime="3.19" overlapTraveltime="3.93" density="2.33" overlapDensity="2.85" laneDensity="2.33" occupancy="1.09" waitingTime="0.00" timeLoss="17.59" speed="6.15" speedRelative="0.74" departed="5" arrived="4" entered="17" left="18" laneChangedFrom="0" laneChangedTo="0" flow="51.52"/>
        <edge id="-96487804#2" sampledSeconds="77.82" traveltime="3.08" overlapTraveltime="3.68" density="2.10" overlapDensity="2.48" laneDensity="2.10" occupancy="0.94" waitingTime="0.00" timeLoss="11.27" speed="7.10" speedRelative="0.85" departed="3" arrived="5" entered="19" left="17" laneChangedFrom="0" laneChangedTo="0" flow="53.57"/>
        <edge id="-96489258#1" sampledSeconds="83.58" traveltime="4.26" overlapTraveltime="5.04" density="1.73" overlapDensity="2.01" laneDensity="0.86" occupancy="0.39" waitingTime="0.00" timeLoss="10.21" speed="6.57" speedRelative="0.79" departed="1" arrived="3" entered="16" left="14" laneChangedFrom="0" laneChangedTo="0" flow="40.83"/>
        <edge id="101376495#1" sampledSeconds="0.00" departed="0" arrived="0" entered="0" left="0" laneChangedFrom="0" laneChangedTo="0"/>
        <edge id="1212501346" sampledSeconds="2521.82" traveltime="9.87" overlapTraveltime="10.46" density="72.13" overlapDensity="76.39" laneDensity="18.03" occupancy="7.83" waitingTime="1633.00" timeLoss="2240.10" speed="2.60" speedRelative="0.09" departed="4" arrived="4" entered="238" left="238" laneChangedFrom="0" laneChangedTo="0" flow="676.00"/>
        <edge id="1212501347#0" sampledSeconds="3200.67" traveltime="35.92" overlapTraveltime="36.84" density="69.96" overlapDensity="71.78" laneDensity="17.49" occupancy="7.79" waitingTime="2475.00" timeLoss="2964.29" speed="0.96" speedRelative="0.07" departed="1" arrived="0" entered="86" left="87" laneChangedFrom="0" laneChangedTo="0" flow="240.53"/>
        <edge id="1212504575" sampledSeconds="362.50" traveltime="1.85" overlapTraveltime="2.82" density="7.51" overlapDensity="11.49" laneDensity="3.75" occupancy="2.00" waitingTime="54.00" timeLoss="116.27" speed="9.28" speedRelative="0.67" departed="3" arrived="4" entered="126" left="125" laneChangedFrom="5" laneChangedTo="5" flow="250.96"/>
        <edge id="1279681436#0" sampledSeconds="575.56" traveltime="5.39" overlapTraveltime="6.22" density="14.23" overlapDensity="17.06" laneDensity="14.23" occupancy="7.03" waitingTime="14.00" timeLoss="358.95" speed="4.46" speedRelative="0.32" departed="111" arrived="0" entered="0" left="111" laneChangedFrom="0" laneChangedTo="0" flow="228.41"/>
        <edge id="1280054791" sampledSeconds="304.37" traveltime="7.88" overlapTraveltime="8.80" density="3.39" overlapDensity="3.76" laneDensity="1.69" occupancy="0.77" waitingTime="0.00" timeLoss="45.10" speed="6.84" speedRelative="0.82" departed="3" arrived="6" entered="32" left="29" laneChangedFrom="0" laneChangedTo="0" flow="83.42"/>
        <edge id="174398008#1" sampledSeconds="46.95" traveltime="2.14" overlapTraveltime="2.74" density="1.77" overlapDensity="2.28" laneDensity="1.77" occupancy="0.82" waitingTime="0.00" timeLoss="8.20" speed="6.81" speedRelative="0.82" departed="3" arrived="6" entered="15" left="12" laneChangedFrom="0" laneChangedTo="0" flow="43.49"/>
        <edge id="174398008#2" sampledSeconds="181.57" traveltime="10.30" overlapTraveltime="10.93" density="1.57" overlapDensity="1.66" laneDensity="1.57" occupancy="0.71" waitingTime="0.00" timeLoss="21.94" speed="7.30" speedRelative="0.88" departed="5" arrived="4" entered="12" left="13" laneChangedFrom="0" laneChangedTo="0" flow="41.30"/>
        <edge id="174398011#1" sampledSeconds="166.29" traveltime="7.48" overlapTraveltime="8.09" density="2.05" overlapDensity="2.21" laneDensity="2.05" occupancy="0.93" waitingTime="0.00" timeLoss="21.98" speed="6.95" speedRelative="0.83" departed="5" arrived="1" entered="16" left="20" laneChangedFrom="0" laneChangedTo="0" flow="51.16"/>
        <edge id="174398011#3" sampledSeconds="163.86" traveltime="5.65" overlapTraveltime="6.26" density="2.61" overlapDensity="2.90" laneDensity="2.61" occupancy="1.19" waitingTime="0.00" timeLoss="23.89" speed="6.94" speedRelative="0.83" departed="7" arrived="4" entered="20" left="23" laneChangedFrom="0" laneChangedTo="0" flow="65.31"/>
        <edge id="174398011#4" sampledSeconds="126.05" traveltime="3.95" overlapTraveltime="4.65" density="2.77" overlapDensity="3.25" laneDensity="2.77" occupancy="1.28" waitingTime="0.00" timeLoss="18.57" speed="6.70" speedRelative="0.80" departed="5" arrived="5" entered="23" left="23" laneChangedFrom="0" laneChangedTo="0" flow="66.77"/>
        <edge id="174398023#1" sampledSeconds="208.43" traveltime="1.15" overlapTraveltime="1.52" density="8.30" overlapDensity="10.97" laneDensity="4.15" occupancy="1.86" waitingTime="0.00" timeLoss="33.38" speed="11.59" speedRelative="0.83" departed="4" arrived="3" entered="135" left="136" laneChangedFrom="1" laneChangedTo="1" flow="346.30"/>
        <edge id="174398023#2" sampledSeconds="1292.65" traveltime="7.91" overlapTraveltime="9.06" density="8.20" overlapDensity="9.40" laneDensity="4.10" occupancy="2.01" waitingTime="120.00" timeLoss="265.26" speed="10.94" speedRelative="0.79" departed="7" arrived="1" entered="136" left="142" laneChangedFrom="7" laneChangedTo="7" flow="323.25"/>
        <edge id="174398023#3" sampledSeconds="715.23" traveltime="2.99" overlapTraveltime="4.97" density="23.17" overlapDensity="38.46" laneDensity="11.58" occupancy="5.89" waitingTime="431.00" timeLoss="515.61" speed="3.48" speedRelative="0.25" departed="3" arrived="7" entered="142" left="138" laneChangedFrom="2" laneChangedTo="2" flow="290.34"/>
        <edge id="174398024#1" sampledSeconds="132.13" traveltime="2.85" overlapTraveltime="3.44" density="4.06" overlapDensity="4.85" laneDensity="2.03" occupancy="0.89" waitingTime="0.00" timeLoss="24.13" speed="6.76" speedRelative="0.81" departed="5" arrived="6" entered="35" left="34" laneChangedFrom="1" laneChangedTo="1" flow="98.82"/>
        <edge id="174398024#2" sampledSeconds="310.37" traveltime="6.42" overlapTraveltime="7.10" density="4.30" overlapDensity="4.74" laneDensity="2.15" occupancy="0.98" waitingTime="3.00" timeLoss="49.11" speed="6.98" speedRelative="0.84" departed="11" arrived="7" entered="34" left="38" laneChangedFrom="0" laneChangedTo="0" flow="108.17"/>
        <edge id="174398024#3" sampledSeconds="567.28" traveltime="12.47" overlapTraveltime="13.47" density="17.04" overlapDensity="18.49" laneDensity="8.52" occupancy="3.92" waitingTime="303.00" timeLoss="432.14" speed="1.90" speedRelative="0.23" departed="5" arrived="1" entered="38" left="42" laneChangedFrom="0" laneChangedTo="0" flow="116.59"/>
        <edge id="182331870#0" sampledSeconds="362.47" traveltime="18.46" overlapTraveltime="19.35" density="1.90" overlapDensity="1.99" laneDensity="1.90" occupancy="0.87" waitingTime="15.00" timeLoss="63.83" speed="6.72" speedRelative="0.81" departed="6" arrived="5" entered="13" left="14" laneChangedFrom="0" laneChangedTo="0" flow="45.99"/>
        <edge id="184852733#0" sampledSeconds="133.49" traveltime="8.83" overlapTraveltime="9.75" density="1.40" overlapDensity="1.54" laneDensity="1.40" occupancy="0.64" waitingTime="4.00" timeLoss="27.51" speed="6.58" speedRelative="0.79" departed="3" arrived="5" entered="11" left="9" laneChangedFrom="0" laneChangedTo="0" flow="33.23"/>
        <edge id="184852733#1" sampledSeconds="233.32" traveltime="8.26" overlapTraveltime="9.24" density="3.19" overlapDensity="3.54" laneDensity="3.19" occupancy="1.47" waitingTime="24.00" timeLoss="83.48" speed="5.39" speedRelative="0.65" departed="6" arrived="6" entered="20" left="20" laneChangedFrom="0" laneChangedTo="0" flow="61.82"/>
        <edge id="184852741#1" sampledSeconds="519.80" traveltime="4.38" overlapTraveltime="4.99" density="6.83" overlapDensity="7.77" laneDensity="3.41" occupancy="1.56" waitingTime="13.00" timeLoss="118.57" speed="10.13" speedRelative="0.73" departed="7" arrived="4" entered="98" left="101" laneChangedFrom="5" laneChangedTo="5" flow="248.99"/>
        <edge id="184852743#0" sampledSeconds="387.86" traveltime="3.03" overlapTraveltime="5.42" density="6.04" overlapDensity="10.70" laneDensity="3.02" occupancy="1.88" waitingTime="123.00" timeLoss="232.25" speed="5.43" speedRelative="0.39" departed="5" arrived="6" entered="68" left="67" laneChangedFrom="11" laneChangedTo="11" flow="118.04"/>
        <edge id="184852743#1" sampledSeconds="1143.21" traveltime="15.33" overlapTraveltime="16.19" density="48.24" overlapDensity="51.02" laneDensity="24.12" occupancy="10.06" waitingTime="834.00" timeLoss="1030.42" speed="1.23" speedRelative="0.09" departed="5" arrived="5" entered="67" left="67" laneChangedFrom="14" laneChangedTo="14" flow="213.60"/>
        <edge id="23370756" sampledSeconds="2006.86" traveltime="26.73" overlapTraveltime="26.98" density="59.47" overlapDensity="62.70" laneDensity="19.82" occupancy="9.19" waitingTime="1296.00" timeLoss="1846.90" speed="0.98" speedRelative="0.07" departed="90" arrived="0" entered="0" left="90" laneChangedFrom="3" laneChangedTo="3" flow="210.56"/>
        <edge id="272521440#0" sampledSeconds="309.71" traveltime="16.09" overlapTraveltime="17.22" density="2.22" overlapDensity="2.37" laneDensity="1.11" occupancy="0.51" waitingTime="48.00" timeLoss="96.77" speed="5.48" speedRelative="0.66" departed="0" arrived="1" entered="18" left="17" laneChangedFrom="0" laneChangedTo="0" flow="43.78"/>
        <edge id="27788646#0" sampledSeconds="815.44" traveltime="1.96" overlapTraveltime="2.45" density="18.71" overlapDensity="23.43" laneDensity="6.24" occupancy="2.86" waitingTime="131.00" timeLoss="388.21" speed="11.61" speedRelative="0.52" departed="1" arrived="4" entered="332" left="329" laneChangedFrom="0" laneChangedTo="0" flow="782.19"/>
        <edge id="27788646#1" sampledSeconds="539.06" traveltime="1.14" overlapTraveltime="1.62" density="25.31" overlapDensity="35.98" laneDensity="8.44" occupancy="3.99" waitingTime="125.00" timeLoss="316.42" speed="9.15" speedRelative="0.41" departed="6" arrived="3" entered="329" left="332" laneChangedFrom="2" laneChangedTo="2" flow="833.83"/>