<?xml version="1.0" encoding="UTF-8"?>

<!-- generated on 2026-01-12T14:19:55.361394+08:00 by Eclipse SUMO GUI 1.25.0
<sumoConfiguration xmlns:xsi="http://www.w3.org/2001/XMLSchema-instance" xsi:noNamespaceSchemaLocation="http://sumo.dlr.de/xsd/sumoConfiguration.xsd">

    <input>
        <net-file value="final_map.net.xml"/>
        <route-files value="trips.xml"/>
        <additional-files value="osm.poly.xml.gz,output.add.xml"/>
    </input>

    <output>
        <summary-output value="data_selfish_summary.xml"/>
        <tripinfo-output value="data_selfish_tripinfo.xml"/>
        <statistic-output value="data_selfish_stats.xml"/>
    </output>

    <processing>
        <ignore-route-errors value="true"/>
        <tls.actuated.jam-threshold value="30"/>
    </processing>

    <routing>
        <device.rerouting.adaptation-steps value="18"/>
        <device.rerouting.adaptation-interval value="10"/>
    </routing>

    <report>
        <verbose value="true"/>
        <duration-log.statistics value="true"/>
        <no-step-log value="true"/>
    </report>

    <gui_only>
        <gui-settings-file value="osm.view.xml"/>
    </gui_only>

</sumoConfiguration>
-->

<meandata xmlns:xsi="http://www.w3.org/2001/XMLSchema-instance" xsi:noNamespaceSchemaLocation="http://sumo.dlr.de/xsd/meandata_file.xsd">
    <interval begin="0.00" end="3600.00" id="wizard_example">
        <edge id="-101376495#1" sampledSeconds="0.00" departed="0" arrived="0" entered="0" left="0" laneChangedFrom="0" laneChangedTo="0"/>
        <edge id="-1212504575" sampledSeconds="241.24" traveltime="1.83" overlapTraveltime="2.22" density="2.53" overlapDensity="3.09" laneDensity="1.27" occupancy="0.64" waitingTime="0.00" timeLoss="32.16" speed="12.01" speedRelative="0.86" departed="8" arrived="2" entered="102" left="108" laneChangedFrom="0" laneChangedTo="0" flow="109.44"/>
        <edge id="-1279681436#0" sampledSeconds="180.27" traveltime="2.32" overlapTraveltime="2.75" density="1.91" overlapDensity="2.16" laneDensity="1.91" occupancy="0.89" waitingTime="0.00" timeLoss="43.76" speed="10.26" speedRelative="0.74" departed="0" arrived="69" entered="69" left="0" laneChangedFrom="0" laneChangedTo="0" flow="70.63"/>
        <edge id="-174398008#1" sampledSeconds="33.05" traveltime="2.16" overlapTraveltime="2.87" density="0.49" overlapDensity="0.65" laneDensity="0.49" occupancy="0.25" waitingTime="0.00" timeLoss="5.07" speed="6.67" speedRelative="0.80" departed="1" arrived="6" entered="11" left="6" laneChangedFrom="0" laneChangedTo="0" flow="11.84"/>
        <edge id="-174398008#2" sampledSeconds="164.22" traveltime="10.49" overlapTraveltime="11.17" density="0.58" overlapDensity="0.62" laneDensity="0.58" occupancy="0.29" waitingTime="0.00" timeLoss="18.21" speed="7.05" speedRelative="0.85" departed="3" arrived="4" entered="12" left="11" laneChangedFrom="0" laneChangedTo="0" flow="14.83"/>
        <edge id="-174398011#1" sampledSeconds="214.04" traveltime="7.69" overlapTraveltime="8.50" density="1.04" overlapDensity="1.15" laneDensity="1.04" occupancy="0.53" waitingTime="0.00" timeLoss="34.30" speed="6.67" speedRelative="0.80" departed="8" arrived="5" entered="18" left="21" laneChangedFrom="0" laneChangedTo="0" flow="25.00"/>
        <edge id="-174398011#3" sampledSeconds="122.00" traveltime="5.15" overlapTraveltime="5.82" density="0.77" overlapDensity="0.87" laneDensity="0.77" occupancy="0.39" waitingTime="0.00" timeLoss="9.63" speed="7.55" speedRelative="0.91" departed="0" arrived="3" entered="21" left="18" laneChangedFrom="0" laneChangedTo="0" flow="20.96"/>
        <edge id="-174398011#4" sampledSeconds="136.44" traveltime="4.07" overlapTraveltime="4.71" density="1.23" overlapDensity="1.42" laneDensity="1.23" occupancy="0.60" waitingTime="0.00" timeLoss="25.31" speed="6.72" speedRelative="0.81" departed="5" arrived="9" entered="25" left="21" laneChangedFrom="0" laneChangedTo="0" flow="29.74"/>
        <edge id="-174398023#1" sampledSeconds="250.99" traveltime="1.07" overlapTraveltime="1.59" density="3.58" overlapDensity="5.33" laneDensity="1.79" occupancy="0.92" waitingTime="9.00" timeLoss="40.86" speed="11.38" speedRelative="0.82" departed="3" arrived="2" entered="156" left="157" laneChangedFrom="1" laneChangedTo="1" flow="146.67"/>
        <edge id="-174398023#2" sampledSeconds="1210.68" traveltime="7.28" overlapTraveltime="7.67" density="3.37" overlapDensity="3.55" laneDensity="1.69" occupancy="0.84" waitingTime="0.00" timeLoss="82.12" speed="12.99" speedRelative="0.94" departed="3" arrived="2" entered="155" left="156" laneChangedFrom="75" laneChangedTo="75" flow="157.83"/>
        <edge id="-174398023#3" sampledSeconds="245.93" traveltime="1.17" overlapTraveltime="1.58" density="3.94" overlapDensity="5.34" laneDensity="1.97" occupancy="0.97" waitingTime="0.00" timeLoss="47.89" speed="11.24" speedRelative="0.81" departed="5" arrived="2" entered="152" left="155" laneChangedFrom="2" laneChangedTo="2" flow="159.39"/>
        <edge id="-174398024#1" sampledSeconds="46.24" traveltime="2.85" overlapTraveltime="3.54" density="0.56" overlapDensity="0.69" laneDensity="0.28" occupancy="0.14" waitingTime="0.00" timeLoss="6.80" speed="6.71" speedRelative="0.80" departed="3" arrived="4" entered="11" left="10" laneChangedFrom="0" laneChangedTo="0" flow="13.44"/>
        <edge id="-174398024#2" sampledSeconds="94.80" traveltime="6.25" overlapTraveltime="6.92" density="0.54" overlapDensity="0.58" laneDensity="0.27" occupancy="0.13" waitingTime="0.00" timeLoss="9.93" speed="7.23" speedRelative="0.87" departed="1" arrived="3" entered="13" left="11" laneChangedFrom="1" laneChangedTo="1" flow="13.94"/>
        <edge id="-174398024#3" sampledSeconds="63.73" traveltime="2.94" overlapTraveltime="3.63" density="0.69" overlapDensity="0.84" laneDensity="0.34" occupancy="0.17" waitingTime="0.00" timeLoss="6.64" speed="7.19" speedRelative="0.86" departed="1" arrived="5" entered="17" left="13" laneChangedFrom="0" laneChangedTo="0" flow="17.80"/>
        <edge id="-182331870#0" sampledSeconds="242.84" traveltime="16.81" overlapTraveltime="17.50" density="0.53" overlapDensity="0.55" laneDensity="0.53" occupancy="0.26" waitingTime="0.00" timeLoss="22.82" speed="7.36" speedRelative="0.88" departed="2" arrived="2" entered="12" left="12" laneChangedFrom="0" laneChangedTo="0" flow="13.91"/>
        <edge id="-184852733#0" sampledSeconds="129.26" traveltime="8.13" overlapTraveltime="8.79" density="0.56" overlapDensity="0.60" laneDensity="0.56" occupancy="0.28" waitingTime="0.00" timeLoss="14.89" speed="7.33" speedRelative="0.88" departed="3" arrived="3" entered="12" left="12" laneChangedFrom="0" laneChangedTo="0" flow="14.78"/>
        <edge id="-184852733#1" sampledSeconds="166.15" traveltime="6.65" overlapTraveltime="7.50" density="0.91" overlapDensity="1.02" laneDensity="0.91" occupancy="0.46" waitingTime="0.00" timeLoss="31.95" speed="6.71" speedRelative="0.81" departed="5" arrived="6" entered="18" left="17" laneChangedFrom="0" laneChangedTo="0" flow="22.10"/>
        <edge id="-184852743#0" sampledSeconds="4588.63" traveltime="27.90" overlapTraveltime="29.03" density="49.28" overlapDensity="51.11" laneDensity="24.64" occupancy="12.18" waitingTime="3481.00" timeLoss="4214.67" speed="1.03" speedRelative="0.07" departed="2" arrived="5" entered="158" left="152" laneChangedFrom="2" laneChangedTo="2" flow="182.96"/>
        <edge id="-184852743#1" sampledSeconds="556.57" traveltime="2.07" overlapTraveltime="3.51" density="5.92" overlapDensity="10.03" laneDensity="2.96" occupancy="1.87" waitingTime="150.00" timeLoss="322.96" speed="5.82" speedRelative="0.42" departed="3" arrived="2" entered="157" left="158" laneChangedFrom="21" laneChangedTo="21" flow="124.14"/>
        <edge id="-32836239" sampledSeconds="154.12" traveltime="7.99" overlapTraveltime="8.66" density="0.71" overlapDensity="0.77" laneDensity="0.36" occupancy="0.18" waitingTime="0.00" timeLoss="19.26" speed="7.00" speedRelative="0.84" departed="2" arrived="1" entered="16" left="17" laneChangedFrom="9" laneChangedTo="9" flow="17.92"/>
        <edge id="-744944960#0" sampledSeconds="457.14" traveltime="4.04" overlapTraveltime="4.42" density="2.58" overlapDensity="2.83" laneDensity="1.29" occupancy="0.63" waitingTime="0.00" timeLoss="85.19" speed="11.29" speedRelative="0.81" departed="5" arrived="2" entered="99" left="102" laneChangedFrom="17" laneChangedTo="17" flow="104.94"/>
        <edge id="-744944962#1" sampledSeconds="278.03" traveltime="2.71" overlapTraveltime="3.07" density="2.22" overlapDensity="2.51" laneDensity="1.11" occupancy="0.54" waitingTime="0.00" timeLoss="132.43" speed="11.66" speedRelative="0.52" departed="7" arrived="5" entered="85" left="87" laneChangedFrom="10" laneChangedTo="10" flow="93.38"/>
        <edge id="-744944967#1" sampledSeconds="1623.94" traveltime="16.70" overlapTraveltime="18.13" density="10.20" overlapDensity="11.07" laneDensity="5.10" occupancy="2.65" waitingTime="988.00" timeLoss="1417.88" speed="2.52" speedRelative="0.11" departed="3" arrived="5" entered="87" left="85" laneChangedFrom="0" laneChangedTo="0" flow="92.63"/>
        <edge id="-744949906#0" sampledSeconds="4402.30" traveltime="23.05" overlapTraveltime="24.22" density="20.81" overlapDensity="21.85" laneDensity="10.41" occupancy="5.30" waitingTime="2729.00" timeLoss="3540.56" speed="2.52" speedRelative="0.18" departed="7" arrived="5" entered="176" left="177" laneChangedFrom="14" laneChangedTo="14" flow="188.59"/>
        <edge id="-744949906#1" sampledSeconds="322.00" traveltime="1.42" overlapTraveltime="1.82" density="4.29" overlapDensity="5.50" laneDensity="2.14" occupancy="1.05" waitingTime="0.00" timeLoss="51.17" speed="11.70" speedRelative="0.84" departed="3" arrived="2" entered="175" left="176" laneChangedFrom="23" laneChangedTo="23" flow="180.58"/>
        <edge id="-744949908" sampledSeconds="693.05" traveltime="5.28" overlapTraveltime="6.16" density="3.09" overlapDensity="3.60" laneDensity="1.54" occupancy="0.81" waitingTime="5.00" timeLoss="190.07" speed="9.48" speedRelative="0.68" departed="5" arrived="5" entered="108" left="108" laneChangedFrom="0" laneChangedTo="0" flow="105.33"/>
        <edge id="-744954673#1" sampledSeconds="0.00" departed="0" arrived="0" entered="0" left="0" laneChangedFrom="0" laneChangedTo="0"/>
        <edge id="-744954674" sampledSeconds="313.98" traveltime="13.53" overlapTraveltime="14.48" density="0.87" overlapDensity="0.93" laneDensity="0.87" occupancy="0.44" waitingTime="4.00" timeLoss="51.16" speed="6.82" speedRelative="0.82" departed="5" arrived="4" entered="17" left="18" laneChangedFrom="0" laneChangedTo="0" flow="21.38"/>
        <edge id="-744999975#1" sampledSeconds="246.58" traveltime="6.54" overlapTraveltime="7.48" density="1.29" overlapDensity="1.46" laneDensity="1.29" occupancy="0.66" waitingTime="0.00" timeLoss="35.55" speed="6.93" speedRelative="0.83" departed="6" arrived="9" entered="28" left="25" laneChangedFrom="0" laneChangedTo="0" flow="32.26"/>
        <edge id="-745055614#1" sampledSeconds="270.68" traveltime="9.48" overlapTraveltime="10.73" density="4.60" overlapDensity="5.22" laneDensity="2.30" occupancy="1.20" waitingTime="141.00" timeLoss="212.71" speed="1.81" speedRelative="0.22" departed="5" arrived="5" entered="22" left="21" laneChangedFrom="0" laneChangedTo="0" flow="29.95"/>
        <edge id="-745055614#2" sampledSeconds="144.29" traveltime="4.68" overlapTraveltime="5.36" density="1.04" overlapDensity="1.17" laneDensity="0.52" occupancy="0.26" waitingTime="0.00" timeLoss="19.84" speed="7.30" speedRelative="0.88" departed="5" arrived="6" entered="23" left="22" laneChangedFrom="0" laneChangedTo="0" flow="27.27"/>
        <edge id="-745055614#3" sampledSeconds="96.08" traveltime="3.08" overlapTraveltime="3.72" density="1.04" overlapDensity="1.26" laneDensity="0.52" occupancy="0.26" waitingTime="0.00" timeLoss="16.37" speed="7.03" speedRelative="0.84" departed="5" arrived="4" entered="22" left="23" laneChangedFrom="3" laneChangedTo="3" flow="26.42"/>
        <edge id="-745062638#1" sampledSeconds="923.54" traveltime="9.34" overlapTraveltime="10.53" density="6.81" overlapDensity="7.70" laneDensity="3.41" occupancy="1.79" waitingTime="350.00" timeLoss="646.46" speed="3.64" speedRelative="0.26" departed="10" arrived="2" entered="79" left="87" laneChangedFrom="0" laneChangedTo="0" flow="89.15"/>
        <edge id="-746423901#1" sampledSeconds="354.17" traveltime="1.92" overlapTraveltime="2.43" density="3.50" overlapDensity="4.42" laneDensity="1.75" occupancy="0.89" waitingTime="2.00" timeLoss="60.04" speed="11.25" speedRelative="0.81" departed="3" arrived="3" entered="144" left="143" laneChangedFrom="3" laneChangedTo="3" flow="141.58"/>
        <edge id="-746423901#2" sampledSeconds="441.61" traveltime="2.64" overlapTraveltime="3.05" density="4.41" overlapDensity="5.11" laneDensity="2.21" occupancy="1.05" waitingTime="0.00" timeLoss="139.19" speed="9.50" speedRelative="0.68" departed="8" arrived="2" entered="139" left="144" laneChangedFrom="20" laneChangedTo="20" flow="150.87"/>
        <edge id="-746423905#1" sampledSeconds="315.78" traveltime="8.11" overlapTraveltime="9.14" density="1.73" overlapDensity="1.94" laneDensity="0.87" occupancy="0.44" waitingTime="33.00" timeLoss="100.80" speed="5.48" speedRelative="0.66" departed="2" arrived="7" entered="33" left="28" laneChangedFrom="21" laneChangedTo="21" flow="34.24"/>
        <edge id="-746649485#0" sampledSeconds="705.40" traveltime="17.19" overlapTraveltime="18.30" density="2.12" overlapDensity="2.26" laneDensity="1.06" occupancy="0.54" waitingTime="297.00" timeLoss="436.64" speed="5.02" speedRelative="0.36" departed="7" arrived="6" entered="32" left="33" laneChangedFrom="7" laneChangedTo="7" flow="38.34"/>
        <edge id="-746653786#0" sampledSeconds="159.07" traveltime="6.29" overlapTraveltime="6.77" density="0.64" overlapDensity="0.69" laneDensity="0.32" occupancy="0.16" waitingTime="0.00" timeLoss="35.80" speed="10.15" speedRelative="0.73" departed="7" arrived="2" entered="17" left="22" laneChangedFrom="5" laneChangedTo="5" flow="23.46"/>
        <edge id="-747217017#0" sampledSeconds="560.75" traveltime="3.83" overlapTraveltime="4.21" density="3.35" overlapDensity="3.68" laneDensity="1.67" occupancy="0.81" waitingTime="0.00" timeLoss="107.48" speed="11.24" speedRelative="0.81" departed="2" arrived="3" entered="132" left="130" laneChangedFrom="48" laneChangedTo="48" flow="135.43"/>
        <edge id="-747447020#0" sampledSeconds="110.78" traveltime="0.48" overlapTraveltime="1.19" density="3.38" overlapDensity="8.74" laneDensity="1.69" occupancy="0.93" waitingTime="0.00" timeLoss="46.79" speed="7.15" speedRelative="0.51" departed="6" arrived="4" entered="90" left="92" laneChangedFrom="0" laneChangedTo="0" flow="86.90"/>
        <edge id="-747447020#1" sampledSeconds="346.07" traveltime="4.15" overlapTraveltime="4.72" density="4.39" overlapDensity="5.32" laneDensity="2.19" occupancy="1.17" waitingTime="0.00" timeLoss="220.45" speed="4.89" speedRelative="0.35" departed="75" arrived="0" entered="15" left="90" laneChangedFrom="3" laneChangedTo="3" flow="77.26"/>
        <edge id="-747853026#0" sampledSeconds="296.76" traveltime="2.81" overlapTraveltime="3.22" density="2.16" overlapDensity="2.47" laneDensity="1.08" occupancy="0.54" waitingTime="0.00" timeLoss="38.04" speed="11.91" speedRelative="0.86" departed="6" arrived="0" entered="87" left="93" laneChangedFrom="3" laneChangedTo="3" flow="92.56"/>
        <edge id="-747853027#0" sampledSeconds="1118.50" traveltime="8.80" overlapTraveltime="9.85" density="6.02" overlapDensity="6.75" laneDensity="3.01" occupancy="1.56" waitingTime="341.00" timeLoss="673.16" speed="5.18" speedRelative="0.37" departed="5" arrived="2" entered="109" left="112" laneChangedFrom="27" laneChangedTo="27" flow="112.34"/>
        <edge id="-747853030" sampledSeconds="170.98" traveltime="1.69" overlapTraveltime="2.12" density="2.26" overlapDensity="2.85" laneDensity="1.13" occupancy="0.56" waitingTime="0.00" timeLoss="45.01" speed="10.19" speedRelative="0.73" departed="6" arrived="3" entered="76" left="79" laneChangedFrom="3" laneChangedTo="3" flow="82.94"/>
        <edge id="-747936760#1" sampledSeconds="254.62" traveltime="6.82" overlapTraveltime="7.62" density="1.29" overlapDensity="1.43" laneDensity="1.29" occupancy="0.65" waitingTime="0.00" timeLoss="32.20" speed="7.12" speedRelative="0.86" departed="4" arrived="3" entered="30" left="30" laneChangedFrom="0" laneChangedTo="0" flow="33.07"/>
        <edge id="-747939433#1" sampledSeconds="976.35" traveltime="6.66" overlapTraveltime="7.41" density="3.42" overlapDensity="3.80" laneDensity="1.71" occupancy="0.88" waitingTime="8.00" timeLoss="246.02" speed="10.31" speedRelative="0.74" departed="2" arrived="2" entered="130" left="130" laneChangedFrom="4" laneChangedTo="4" flow="126.89"/>
        <edge id="-749508471#0" sampledSeconds="186.59" traveltime="16.25" overlapTraveltime="17.11" density="0.39" overlapDensity="0.41" laneDensity="0.20" occupancy="0.10" waitingTime="0.00" timeLoss="20.07" speed="7.61" speedRelative="0.91" departed="2" arrived="2" entered="9" left="9" laneChangedFrom="4" laneChangedTo="4" flow="10.78"/>
        <edge id="-96487801#0" sampledSeconds="170.55" traveltime="6.83" overlapTraveltime="7.65" density="0.90" overlapDensity="1.02" laneDensity="0.90" occupancy="0.46" waitingTime="0.00" timeLoss="31.03" speed="6.75" speedRelative="0.81" departed="7" arrived="2" entered="16" left="21" laneChangedFrom="0" laneChangedTo="0" flow="22.00"/>
        <edge id="-96487801#1" sampledSeconds="96.58" traveltime="1.42" overlapTraveltime="2.50" density="1.99" overlapDensity="3.73" laneDensity="1.99" occupancy="1.19" waitingTime="0.00" timeLoss="28.05" speed="4.88" speedRelative="0.59" departed="8" arrived="0" entered="34" left="42" laneChangedFrom="0" laneChangedTo="0" flow="34.92"/>
        <edge id="-96487801#2" sampledSeconds="191.06" traveltime="4.45" overlapTraveltime="5.23" density="1.36" overlapDensity="1.60" laneDensity="1.36" occupancy="0.69" waitingTime="0.00" timeLoss="23.75" speed="7.31" speedRelative="0.88" departed="2" arrived="3" entered="35" left="34" laneChangedFrom="0" laneChangedTo="0" flow="35.91"/>
        <edge id="-96487801#3" sampledSeconds="82.26" traveltime="1.63" overlapTraveltime="2.30" density="1.45" overlapDensity="2.05" laneDensity="1.45" occupancy="0.71" waitingTime="0.00" timeLoss="13.39" speed="7.03" speedRelative="0.84" departed="3" arrived="2" entered="34" left="35" laneChangedFrom="0" laneChangedTo="0" flow="36.68"/>
        <edge id="-96487803#0" sampledSeconds="97.70" traveltime="8.12" overlapTraveltime="8.94" density="0.42" overlapDensity="0.46" laneDensity="0.42" occupancy="0.21" waitingTime="0.00" timeLoss="14.61" speed="7.19" speedRelative="0.86" departed="0" arrived="2" entered="11" left="9" laneChangedFrom="0" laneChangedTo="0" flow="10.84"/>
        <edge id="-96487803#1" sampledSeconds="194.42" traveltime="7.34" overlapTraveltime="8.45" density="1.01" overlapDensity="1.17" laneDensity="1.01" occupancy="0.53" waitingTime="4.00" timeLoss="41.47" speed="6.07" speedRelative="0.73" departed="9" arrived="4" entered="15" left="20" laneChangedFrom="0" laneChangedTo="0" flow="22.15"/>
        <edge id="-96487804#0" sampledSeconds="61.49" traveltime="3.14" overlapTraveltime="3.91" density="0.70" overlapDensity="0.87" laneDensity="0.70" occupancy="0.36" waitingTime="0.00" timeLoss="13.21" speed="6.30" speedRelative="0.76" departed="5" arrived="4" entered="12" left="13" laneChangedFrom="0" laneChangedTo="0" flow="15.79"/>
        <edge id="-96487804#2" sampledSeconds="59.10" traveltime="3.11" overlapTraveltime="3.77" density="0.63" overlapDensity="0.76" laneDensity="0.63" occupancy="0.32" waitingTime="0.00" timeLoss="9.31" speed="7.07" speedRelative="0.85" departed="3" arrived="4" entered="14" left="12" laneChangedFrom="0" laneChangedTo="0" flow="16.08"/>
        <edge id="-96489258#1" sampledSeconds="51.77" traveltime="4.13" overlapTraveltime="4.84" density="0.43" overlapDensity="0.50" laneDensity="0.22" occupancy="0.11" waitingTime="0.00" timeLoss="4.94" speed="6.95" speedRelative="0.83" departed="1" arrived="3" entered="10" left="8" laneChangedFrom="0" laneChangedTo="0" flow="10.85"/>
        <edge id="101376495#1" sampledSeconds="0.00" departed="0" arrived="0" entered="0" left="0" laneChangedFrom="0" laneChangedTo="0"/>
        <edge id="1212501346" sampledSeconds="1548.28" traveltime="6.76" overlapTraveltime="7.48" density="17.11" overlapDensity="18.93" laneDensity="4.28" occupancy="2.21" waitingTime="837.00" timeLoss="1297.37" speed="3.71" speedRelative="0.13" departed="4" arrived="3" entered="204" left="205" laneChangedFrom="0" laneChangedTo="0" flow="228.26"/>
        <edge id="1212501347#0" sampledSeconds="1759.83" traveltime="25.39" overlapTraveltime="26.72" density="15.13" overlapDensity="15.93" laneDensity="3.78" occupancy="1.92" waitingTime="1244.00" timeLoss="1579.97" speed="1.34" speedRelative="0.10" departed="1" arrived="0" entered="65" left="66" laneChangedFrom="0" laneChangedTo="0" flow="72.73"/>
        <edge id="1212504575" sampledSeconds="242.78" traveltime="1.72" overlapTraveltime="2.11" density="2.53" overlapDensity="3.10" laneDensity="1.27" occupancy="0.64" waitingTime="0.00" timeLoss="18.82" speed="12.68" speedRelative="0.91" departed="3" arrived="4" entered="113" left="112" laneChangedFrom="4" laneChangedTo="4" flow="115.64"/>
        <edge id="1279681436#0" sampledSeconds="467.97" traveltime="5.00" overlapTraveltime="5.89" density="4.53" overlapDensity="5.60" laneDensity="4.53" occupancy="2.52" waitingTime="0.00" timeLoss="274.80" speed="4.79" speedRelative="0.35" departed="97" arrived="0" entered="0" left="97" laneChangedFrom="0" laneChangedTo="0" flow="78.13"/>
        <edge id="1280054791" sampledSeconds="192.15" traveltime="7.90" overlapTraveltime="8.82" density="0.86" overlapDensity="0.96" laneDensity="0.43" occupancy="0.22" waitingTime="0.00" timeLoss="28.15" speed="6.88" speedRelative="0.83" departed="2" arrived="4" entered="20" left="18" laneChangedFrom="1" laneChangedTo="1" flow="21.30"/>
        <edge id="174398008#1" sampledSeconds="41.96" traveltime="2.19" overlapTraveltime="2.85" density="0.64" overlapDensity="0.82" laneDensity="0.64" occupancy="0.33" waitingTime="0.00" timeLoss="8.01" speed="6.71" speedRelative="0.81" departed="3" arrived="5" entered="13" left="11" laneChangedFrom="0" laneChangedTo="0" flow="15.48"/>
        <edge id="174398008#2" sampledSeconds="149.95" traveltime="10.22" overlapTraveltime="10.91" density="0.52" overlapDensity="0.55" laneDensity="0.52" occupancy="0.26" waitingTime="0.00" timeLoss="17.30" speed="7.36" speedRelative="0.88" departed="3" arrived="4" entered="11" left="10" laneChangedFrom="0" laneChangedTo="0" flow="13.78"/>
        <edge id="174398011#1" sampledSeconds="116.73" traveltime="7.30" overlapTraveltime="7.97" density="0.57" overlapDensity="0.63" laneDensity="0.57" occupancy="0.29" waitingTime="0.00" timeLoss="15.31" speed="7.11" speedRelative="0.85" departed="4" arrived="0" entered="11" left="15" laneChangedFrom="0" laneChangedTo="0" flow="14.67"/>
        <edge id="174398011#3" sampledSeconds="118.93" traveltime="5.53" overlapTraveltime="6.17" density="0.76" overlapDensity="0.85" laneDensity="0.76" occupancy="0.39" waitingTime="0.00" timeLoss="15.73" speed="7.12" speedRelative="0.86" departed="5" arrived="3" entered="15" left="17" laneChangedFrom="0" laneChangedTo="0" flow="19.56"/>
        <edge id="174398011#4" sampledSeconds="93.36" traveltime="3.89" overlapTraveltime="4.65" density="0.82" overlapDensity="0.97" laneDensity="0.82" occupancy="0.42" waitingTime="0.00" timeLoss="13.27" speed="6.82" speedRelative="0.82" departed="4" arrived="4" entered="17" left="17" laneChangedFrom="0" laneChangedTo="0" flow="20.10"/>
        <edge id="174398023#1" sampledSeconds="181.65" traveltime="1.11" overlapTraveltime="1.51" density="2.83" overlapDensity="3.86" laneDensity="1.42" occupancy="0.70" waitingTime="0.00" timeLoss="24.65" speed="11.94" speedRelative="0.86" departed="3" arrived="2" entered="118" left="119" laneChangedFrom="0" laneChangedTo="0" flow="121.62"/>
        <edge id="174398023#2" sampledSeconds="969.39" traveltime="7.42" overlapTraveltime="7.84" density="2.69" overlapDensity="2.84" laneDensity="1.35" occupancy="0.67" waitingTime="0.00" timeLoss="75.68" speed="12.72" speedRelative="0.92" departed="5" arrived="1" entered="119" left="123" laneChangedFrom="2" laneChangedTo="2" flow="123.38"/>
        <edge id="174398023#3" sampledSeconds="233.91" traveltime="1.19" overlapTraveltime="1.88" density="3.22" overlapDensity="5.08" laneDensity="1.61" occupancy="0.92" waitingTime="11.00" timeLoss="54.63" speed="9.49" speedRelative="0.68" departed="3" arrived="7" entered="123" left="119" laneChangedFrom="2" laneChangedTo="2" flow="109.85"/>
        <edge id="174398024#1" sampledSeconds="79.58" traveltime="2.99" overlapTraveltime="3.66" density="0.97" overlapDensity="1.18" laneDensity="0.49" occupancy="0.24" waitingTime="0.00" timeLoss="16.31" speed="6.48" speedRelative="0.78" departed="4" arrived="6" entered="19" left="17" laneChangedFrom="0" laneChangedTo="0" flow="22.65"/>
        <edge id="174398024#2" sampledSeconds="184.79" traveltime="6.53" overlapTraveltime="7.19" density="1.04" overlapDensity="1.14" laneDensity="0.52" occupancy="0.26" waitingTime="0.00" timeLoss="27.87" speed="6.96" speedRelative="0.84" departed="10" arrived="5" entered="17" left="22" laneChangedFrom="0" laneChangedTo="0" flow="26.11"/>
        <edge id="174398024#3" sampledSeconds="226.70" traveltime="7.91" overlapTraveltime="9.08" density="2.60" overlapDensity="2.98" laneDensity="1.30" occupancy="0.68" waitingTime="89.00" timeLoss="143.73" speed="2.87" speedRelative="0.35" departed="4" arrived="1" entered="22" left="24" laneChangedFrom="0" laneChangedTo="0" flow="26.93"/>
        <edge id="182331870#0" sampledSeconds="286.99" traveltime="17.42" overlapTraveltime="18.24" density="0.61" overlapDensity="0.64" laneDensity="0.61" occupancy="0.31" waitingTime="0.00" timeLoss="35.06" speed="7.15" speedRelative="0.86" departed="6" arrived="4" entered="10" left="12" laneChangedFrom="0" laneChangedTo="0" flow="15.65"/>
        <edge id="184852733#0" sampledSeconds="87.01" traveltime="8.21" overlapTraveltime="8.94" density="0.38" overlapDensity="0.40" laneDensity="0.38" occupancy="0.19" waitingTime="0.00" timeLoss="13.48" speed="7.24" speedRelative="0.87" departed="2" arrived="3" entered="8" left="7" laneChangedFrom="0" laneChangedTo="0" flow="9.79"/>
        <edge id="184852733#1" sampledSeconds="172.53" traveltime="7.18" overlapTraveltime="8.18" density="0.94" overlapDensity="1.06" laneDensity="0.94" occupancy="0.48" waitingTime="7.00" timeLoss="48.48" speed="6.15" speedRelative="0.74" departed="6" arrived="5" entered="16" left="17" laneChangedFrom="0" laneChangedTo="0" flow="20.79"/>
        <edge id="184852741#1" sampledSeconds="439.94" traveltime="4.26" overlapTraveltime="4.87" density="2.32" overlapDensity="2.65" laneDensity="1.16" occupancy="0.59" waitingTime="3.00" timeLoss="90.22" speed="10.49" speedRelative="0.76" departed="6" arrived="4" entered="85" left="87" laneChangedFrom="3" laneChangedTo="3" flow="87.53"/>
        <edge id="184852743#0" sampledSeconds="162.48" traveltime="2.55" overlapTraveltime="3.06" density="1.51" overlapDensity="1.81" laneDensity="0.76" occupancy="0.37" waitingTime="0.00" timeLoss="45.45" speed="9.79" speedRelative="0.70" departed="4" arrived="5" entered="50" left="49" laneChangedFrom="7" laneChangedTo="7" flow="53.24"/>
        <edge id="184852743#1" sampledSeconds="177.16" traveltime="2.47" overlapTraveltime="3.37" density="2.33" overlapDensity="3.19" laneDensity="1.17" occupancy="0.64" waitingTime="7.00" timeLoss="85.91" speed="6.05" speedRelative="0.44" departed="5" arrived="2" entered="49" left="52" laneChangedFrom="1" laneChangedTo="1" flow="50.80"/>
        <edge id="23370756" sampledSeconds="872.74" traveltime="14.43" overlapTraveltime="15.21" density="9.92" overlapDensity="11.00" laneDensity="3.31" occupancy="1.75" waitingTime="386.00" timeLoss="745.92" speed="1.78" speedRelative="0.13" departed="71" arrived="0" entered="0" left="70" laneChangedFrom="3" laneChangedTo="3" flow="63.47"/>
        <edge id="272521440#0" sampledSeconds="219.14" traveltime="13.65" overlapTraveltime="14.66" density="0.63" overlapDensity="0.68" laneDensity="0.32" occupancy="0.16" waitingTime="8.00" timeLoss="38.79" speed="6.47" speedRelative="0.78" departed="0" arrived="1" entered="15" left="14" laneChangedFrom="0" laneChangedTo="0" flow="14.74"/>
        <edge id="27788646#0" sampledSeconds="402.79" traveltime="1.26" overlapTraveltime="1.52" density="3.88" overlapDensity="4.67" laneDensity="1.29" occupancy="0.64" waitingTime="0.00" timeLoss="55.88" speed="19.11" speedRelative="0.86" departed="1" arrived="3" entered="265" left="263" laneChangedFrom="0" laneChangedTo="0" flow="267.15"/>
        <edge id="27788646#1" sampledSeconds="223.14" traveltime="0.56" overlapTraveltime="0.84" density="3.99" overlapDensity="6.01" laneDensity="1.33" occupancy="0.68" waitingTime="0.00" timeLoss="39.36" speed="18.27" speedRelative="0.82" departed="5" arrived="3" entered="263" left="265" laneChangedFrom="0" laneChangedTo="0" flow="262.49"/>
        <edge id="27788646#2" sampledSeconds="560.64" traveltime="1.71" overlapTraveltime="2.10" density="4.68" overlapDensity="5.74" laneDensity="1.56" occupancy="0.80" waitingTime="0.00" timeLoss="173.44" speed="15.32" speedRelative="0.69" departed="3" arrived="1" entered="265" left="267" laneChangedFrom="0" laneChangedTo="0" flow="258.21"/>