<?xml version="1.0" encoding="UTF-8"?>

<!-- generated on 2026-01-12T13:40:41.730030+08:00 by Eclipse SUMO GUI 1.25.0
<sumoConfiguration xmlns:xsi="http://www.w3.org/2001/XMLSchema-instance" xsi:noNamespaceSchemaLocation="http://sumo.dlr.de/xsd/sumoConfiguration.xsd">

    <input>
        <net-file value="C:\Users\otaku\Documents\Thesis\SUMO\bgc_core\final_map.net.xml"/>
        <route-files value="C:\Users\otaku\Documents\Thesis\SUMO\bgc_core\trips.xml"/>
        <additional-files value="C:\Users\otaku\Documents\Thesis\SUMO\bgc_core\osm.poly.xml.gz,C:\Users\otaku\Documents\Thesis\SUMO\bgc_core\output.add.xml"/>
    </input>

    <output>
        <tripinfo-output value="C:\Users\otaku\Documents\Thesis\SUMO\bgc_core\tripinfos.xml"/>
        <statistic-output value="C:\Users\otaku\Documents\Thesis\SUMO\bgc_core\stats.xml"/>
    </output>

    <processing>
        <ignore-route-errors value="true"/>
        <tls.actuated.jam-threshold value="30"/>
    </processing>

    <routing>
        <device.rerouting.adaptation-steps value="18"/>
        <device.rerouting.adaptation-interval value="10"/>
    </routing>

    <report>
        <verbose value="true"/>
        <duration-log.statistics value="true"/>
        <no-step-log value="true"/>
    </report>

    <gui_only>
        <gui-settings-file value="C:\Users\otaku\Documents\Thesis\SUMO\bgc_core\osm.view.xml"/>
    </gui_only>

</sumoConfiguration>
-->

<tripinfos xmlns:xsi="http://www.w3.org/2001/XMLSchema-instance" xsi:noNamespaceSchemaLocation="http://sumo.dlr.de/xsd/tripinfo_file.xsd">
</tripinfos>
