<?xml version="1.0" encoding="UTF-8"?>

<!-- generated on 2026-01-12T14:32:36.303943+08:00 by Eclipse SUMO GUI 1.25.0
<sumoConfiguration xmlns:xsi="http://www.w3.org/2001/XMLSchema-instance" xsi:noNamespaceSchemaLocation="http://sumo.dlr.de/xsd/sumoConfiguration.xsd">

    <input>
        <net-file value="osm.net.xml.gz"/>
        <route-files value="trips.xml"/>
        <additional-files value="osm.poly.xml.gz,output.add.xml"/>
    </input>

    <output>
        <summary-output value="data_selfish_summary.xml"/>
        <tripinfo-output value="data_selfish_tripinfo.xml"/>
        <statistic-output value="data_selfish_stats.xml"/>
    </output>

    <processing>
        <ignore-route-errors value="true"/>
        <time-to-teleport value="-1"/>
        <tls.actuated.jam-threshold value="30"/>
    </processing>

    <routing>
        <device.rerouting.adaptation-steps value="18"/>
        <device.rerouting.adaptation-interval value="10"/>
    </routing>

    <report>
        <verbose value="true"/>
        <duration-log.statistics value="true"/>
        <no-step-log value="true"/>
    </report>

    <gui_only>
        <gui-settings-file value="osm.view.xml"/>
    </gui_only>

</sumoConfiguration>
-->

<tripinfos xmlns:xsi="http://www.w3.org/2001/XMLSchema-instance" xsi:noNamespaceSchemaLocation="http://sumo.dlr.de/xsd/tripinfo_file.xsd">
    <tripinfo id="veh33" depart="61.00" departLane="1057384166#1_1" departPos="5.10" departSpeed="0.00" departDelay="0.76" arrival="114.00" arrivalLane="-814837408#1_1" arrivalPos="32.40" arrivalSpeed="7.90" duration="53.00" routeLength="665.87" waitingTime="0.00" waitingCount="0" stopTime="0.00" timeLoss="11.83" rerouteNo="1" devices="tripinfo_veh33 routing_veh33" vType="veh_passenger" speedFactor="1.01" vaporized=""/>
    <tripinfo id="veh31" depart="57.00" departLane="453672432#0_2" departPos="5.10" departSpeed="0.00" departDelay="0.41" arrival="139.00" arrivalLane="183688028#10_0" arrivalPos="51.78" arrivalSpeed="15.14" duration="82.00" routeLength="1050.68" waitingTime="0.00" waitingCount="0" stopTime="0.00" timeLoss="24.76" rerouteNo="1" devices="tripinfo_veh31 routing_veh31" vType="veh_passenger" speedFactor="1.18" vaporized=""/>
    <tripinfo id="veh20" depart="37.00" departLane="174398012#1_0" departPos="0.20" departSpeed="0.00" departDelay="0.49" arrival="154.00" arrivalLane="-745055614#3_0" arrivalPos="16.62" arrivalSpeed="7.94" duration="117.00" routeLength="1218.47" waitingTime="0.00" waitingCount="0" stopTime="0.00" timeLoss="21.23" rerouteNo="1" devices="tripinfo_veh20 routing_veh20" vType="veh_passenger" speedFactor="1.02" vaporized=""/>
    <tripinfo id="veh53" depart="97.00" departLane="-1008051258#2_0" departPos="5.10" departSpeed="0.00" departDelay="0.24" arrival="188.00" arrivalLane="1263432701_1" arrivalPos="32.34" arrivalSpeed="13.70" duration="91.00" routeLength="849.13" waitingTime="0.00" waitingCount="0" stopTime="0.00" timeLoss="18.27" rerouteNo="1" devices="tripinfo_veh53 routing_veh53" vType="veh_passenger" speedFactor="1.02" vaporized=""/>
    <tripinfo id="veh55" depart="101.00" departLane="747853024#1_1" departPos="5.10" departSpeed="0.00" departDelay="0.59" arrival="189.00" arrivalLane="746423901#2_0" arrivalPos="21.17" arrivalSpeed="13.39" duration="88.00" routeLength="969.45" waitingTime="5.00" waitingCount="2" stopTime="0.00" timeLoss="33.67" rerouteNo="1" devices="tripinfo_veh55 routing_veh55" vType="veh_passenger" speedFactor="1.00" vaporized=""/>
    <tripinfo id="veh29" depart="53.00" departLane="-746807318#0_0" departPos="5.10" departSpeed="0.00" departDelay="0.06" arrival="199.00" arrivalLane="814837403#3_0" arrivalPos="19.65" arrivalSpeed="11.83" duration="146.00" routeLength="1927.93" waitingTime="13.00" waitingCount="3" stopTime="0.00" timeLoss="58.99" rerouteNo="1" devices="tripinfo_veh29 routing_veh29" vType="veh_passenger" speedFactor="1.13" vaporized=""/>
    <tripinfo id="veh48" depart="88.00" departLane="749858672#1_2" departPos="5.10" departSpeed="0.00" departDelay="0.37" arrival="201.00" arrivalLane="747228979_1" arrivalPos="11.11" arrivalSpeed="8.73" duration="113.00" routeLength="750.44" waitingTime="29.00" waitingCount="3" stopTime="0.00" timeLoss="72.47" rerouteNo="1" devices="tripinfo_veh48 routing_veh48" vType="veh_passenger" speedFactor="0.90" vaporized=""/>
    <tripinfo id="veh22" depart="41.00" departLane="440588496#0_0" departPos="5.10" departSpeed="0.00" departDelay="0.84" arrival="208.00" arrivalLane="339318044#1_1" arrivalPos="0.20" arrivalSpeed="12.07" duration="167.00" routeLength="2553.73" waitingTime="0.00" waitingCount="0" stopTime="0.00" timeLoss="38.86" rerouteNo="1" devices="tripinfo_veh22 routing_veh22" vType="veh_passenger" speedFactor="0.97" vaporized=""/>
    <tripinfo id="veh26" depart="48.00" departLane="746785987#1_1" departPos="5.10" departSpeed="0.00" departDelay="0.54" arrival="211.00" arrivalLane="744632163#0_0" arrivalPos="0.20" arrivalSpeed="6.48" duration="163.00" routeLength="1283.20" waitingTime="18.00" waitingCount="4" stopTime="0.00" timeLoss="62.70" rerouteNo="1" devices="tripinfo_veh26 routing_veh26" vType="veh_passenger" speedFactor="0.92" vaporized=""/>
    <tripinfo id="veh30" depart="55.00" departLane="747447020#1_1" departPos="5.10" departSpeed="0.00" departDelay="0.23" arrival="214.00" arrivalLane="1212501346_1" arrivalPos="22.72" arrivalSpeed="25.74" duration="159.00" routeLength="1191.07" waitingTime="51.00" waitingCount="4" stopTime="0.00" timeLoss="97.44" rerouteNo="1" devices="tripinfo_veh30 routing_veh30" vType="veh_passenger" speedFactor="0.93" vaporized=""/>
    <tripinfo id="veh96" depart="176.00" departLane="28539957#2_0" departPos="5.10" departSpeed="0.00" departDelay="0.75" arrival="216.00" arrivalLane="800671112#12_1" arrivalPos="105.93" arrivalSpeed="14.11" duration="40.00" routeLength="403.00" waitingTime="0.00" waitingCount="0" stopTime="0.00" timeLoss="9.97" rerouteNo="1" devices="tripinfo_veh96 routing_veh96" vType="veh_passenger" speedFactor="1.06" vaporized=""/>
    <tripinfo id="veh23" depart="42.00" departLane="-4940135_0" departPos="5.10" departSpeed="9.88" departDelay="0.01" arrival="223.00" arrivalLane="705076645_1" arrivalPos="48.08" arrivalSpeed="24.30" duration="181.00" routeLength="1810.94" waitingTime="33.00" waitingCount="4" stopTime="0.00" timeLoss="100.27" rerouteNo="1" devices="tripinfo_veh23 routing_veh23" vType="veh_passenger" speedFactor="0.89" vaporized=""/>
    <tripinfo id="veh11" depart="21.00" departLane="745356310#1_2" departPos="5.10" departSpeed="0.00" departDelay="0.92" arrival="228.00" arrivalLane="705076646#1_0" arrivalPos="36.92" arrivalSpeed="27.48" duration="207.00" routeLength="1201.93" waitingTime="101.00" waitingCount="4" stopTime="0.00" timeLoss="139.16" rerouteNo="1" devices="tripinfo_veh11 routing_veh11" vType="veh_passenger" speedFactor="1.03" vaporized=""/>
    <tripinfo id="veh35" depart="64.00" departLane="216598266_2" departPos="5.10" departSpeed="0.00" departDelay="0.10" arrival="228.00" arrivalLane="-747005523#0_0" arrivalPos="80.57" arrivalSpeed="10.97" duration="164.00" routeLength="1453.51" waitingTime="33.00" waitingCount="3" stopTime="0.00" timeLoss="75.53" rerouteNo="1" devices="tripinfo_veh35 routing_veh35" vType="veh_passenger" speedFactor="0.99" vaporized=""/>
    <tripinfo id="veh2" depart="4.00" departLane="747951006_3" departPos="5.10" departSpeed="0.00" departDelay="0.35" arrival="230.00" arrivalLane="-23296779#0_0" arrivalPos="47.28" arrivalSpeed="12.74" duration="226.00" routeLength="1887.32" waitingTime="70.00" waitingCount="1" stopTime="0.00" timeLoss="113.36" rerouteNo="1" devices="tripinfo_veh2 routing_veh2" vType="veh_passenger" speedFactor="1.01" vaporized=""/>
    <tripinfo id="veh9" depart="17.00" departLane="822062850#0_0" departPos="3.16" departSpeed="0.00" departDelay="0.57" arrival="242.00" arrivalLane="1289152450#1_0" arrivalPos="2.26" arrivalSpeed="4.18" duration="225.00" routeLength="1889.65" waitingTime="7.00" waitingCount="1" stopTime="0.00" timeLoss="42.71" rerouteNo="1" devices="tripinfo_veh9 routing_veh9" vType="veh_passenger" speedFactor="0.86" vaporized=""/>
    <tripinfo id="veh37" depart="68.00" departLane="-28536226_0" departPos="5.10" departSpeed="13.52" departDelay="0.45" arrival="243.00" arrivalLane="-174398023#2_1" arrivalPos="85.02" arrivalSpeed="12.45" duration="175.00" routeLength="1912.27" waitingTime="16.00" waitingCount="2" stopTime="0.00" timeLoss="51.44" rerouteNo="1" devices="tripinfo_veh37 routing_veh37" vType="veh_passenger" speedFactor="0.97" vaporized=""/>
    <tripinfo id="veh3" depart="6.00" departLane="-747447020#1_1" departPos="5.10" departSpeed="0.00" departDelay="0.52" arrival="244.00" arrivalLane="28539739#6_0" arrivalPos="21.49" arrivalSpeed="14.25" duration="238.00" routeLength="2353.74" waitingTime="12.00" waitingCount="1" stopTime="0.00" timeLoss="59.99" rerouteNo="1" devices="tripinfo_veh3 routing_veh3" vType="veh_passenger" speedFactor="1.08" vaporized=""/>
    <tripinfo id="veh5" depart="10.00" departLane="-747853024#1_0" departPos="5.10" departSpeed="0.00" departDelay="0.87" arrival="249.00" arrivalLane="32488152#1_1" arrivalPos="0.20" arrivalSpeed="6.09" duration="239.00" routeLength="1741.33" waitingTime="81.00" waitingCount="5" stopTime="0.00" timeLoss="134.22" rerouteNo="1" devices="tripinfo_veh5 routing_veh5" vType="veh_passenger" speedFactor="0.83" vaporized=""/>
    <tripinfo id="veh64" depart="117.00" departLane="1338912465_0" departPos="5.10" departSpeed="0.00" departDelay="0.16" arrival="251.00" arrivalLane="32488152#0_1" arrivalPos="0.20" arrivalSpeed="3.56" duration="134.00" routeLength="807.93" waitingTime="39.00" waitingCount="3" stopTime="0.00" timeLoss="74.06" rerouteNo="1" devices="tripinfo_veh64 routing_veh64" vType="veh_passenger" speedFactor="0.99" vaporized=""/>
    <tripinfo id="veh1" depart="2.00" departLane="711231847#2_0" departPos="5.10" departSpeed="0.00" departDelay="0.17" arrival="254.00" arrivalLane="4940269#4_0" arrivalPos="25.79" arrivalSpeed="25.01" duration="252.00" routeLength="2302.56" waitingTime="67.00" waitingCount="5" stopTime="0.00" timeLoss="142.03" rerouteNo="1" devices="tripinfo_veh1 routing_veh1" vType="veh_passenger" speedFactor="0.94" vaporized=""/>
    <tripinfo id="veh32" depart="59.00" departLane="750563083#0_2" departPos="5.10" departSpeed="0.00" departDelay="0.58" arrival="255.00" arrivalLane="248903712_1" arrivalPos="155.35" arrivalSpeed="30.68" duration="196.00" routeLength="1583.16" waitingTime="71.00" waitingCount="5" stopTime="0.00" timeLoss="137.38" rerouteNo="1" devices="tripinfo_veh32 routing_veh32" vType="veh_passenger" speedFactor="1.15" vaporized=""/>
    <tripinfo id="veh80" depart="147.00" departLane="896483082#0_0" departPos="0.20" departSpeed="0.00" departDelay="0.95" arrival="258.00" arrivalLane="770797805_0" arrivalPos="68.45" arrivalSpeed="14.60" duration="111.00" routeLength="1087.28" waitingTime="0.00" waitingCount="0" stopTime="0.00" timeLoss="20.59" rerouteNo="1" devices="tripinfo_veh80 routing_veh80" vType="veh_passenger" speedFactor="1.09" vaporized=""/>
    <tripinfo id="veh34" depart="63.00" departLane="28996820#0_0" departPos="5.10" departSpeed="16.28" departDelay="0.93" arrival="259.00" arrivalLane="-96489260#3_1" arrivalPos="10.06" arrivalSpeed="7.26" duration="196.00" routeLength="1839.49" waitingTime="61.00" waitingCount="3" stopTime="0.00" timeLoss="116.33" rerouteNo="1" devices="tripinfo_veh34 routing_veh34" vType="veh_passenger" speedFactor="1.17" vaporized=""/>
    <tripinfo id="veh87" depart="159.00" departLane="822062850#0_0" departPos="3.16" departSpeed="0.00" departDelay="0.18" arrival="264.00" arrivalLane="96489260#0_0" arrivalPos="32.90" arrivalSpeed="8.02" duration="105.00" routeLength="1115.94" waitingTime="15.00" waitingCount="1" stopTime="0.00" timeLoss="46.76" rerouteNo="1" devices="tripinfo_veh87 routing_veh87" vType="veh_passenger" speedFactor="1.00" vaporized=""/>
    <tripinfo id="veh115" depart="210.00" departLane="23296777#1_0" departPos="5.10" departSpeed="0.00" departDelay="0.06" arrival="264.00" arrivalLane="-1072176585_0" arrivalPos="24.93" arrivalSpeed="12.01" duration="54.00" routeLength="497.96" waitingTime="0.00" waitingCount="0" stopTime="0.00" timeLoss="14.71" rerouteNo="1" devices="tripinfo_veh115 routing_veh115" vType="veh_passenger" speedFactor="1.01" vaporized=""/>
    <tripinfo id="veh7" depart="13.00" departLane="745062638#1_1" departPos="5.10" departSpeed="0.00" departDelay="0.22" arrival="270.00" arrivalLane="568142851#4_0" arrivalPos="29.67" arrivalSpeed="23.80" duration="257.00" routeLength="3623.92" waitingTime="19.00" waitingCount="3" stopTime="0.00" timeLoss="69.19" rerouteNo="1" devices="tripinfo_veh7 routing_veh7" vType="veh_passenger" speedFactor="0.89" vaporized=""/>
    <tripinfo id="veh14" depart="26.00" departLane="746549788#0_3" departPos="5.10" departSpeed="0.00" departDelay="0.44" arrival="271.00" arrivalLane="35491533_0" arrivalPos="289.11" arrivalSpeed="10.23" duration="245.00" routeLength="2368.52" waitingTime="54.00" waitingCount="4" stopTime="0.00" timeLoss="123.02" rerouteNo="1" devices="tripinfo_veh14 routing_veh14" vType="veh_passenger" speedFactor="0.99" vaporized=""/>
    <tripinfo id="veh90" depart="165.00" departLane="-184852743#1_0" departPos="5.10" departSpeed="0.00" departDelay="0.70" arrival="276.00" arrivalLane="32488019#0_0" arrivalPos="0.11" arrivalSpeed="12.93" duration="111.00" routeLength="746.88" waitingTime="42.00" waitingCount="3" stopTime="0.00" timeLoss="70.02" rerouteNo="1" devices="tripinfo_veh90 routing_veh90" vType="veh_passenger" speedFactor="1.02" vaporized=""/>
    <tripinfo id="veh112" depart="205.00" departLane="746811049#1_0" departPos="5.10" departSpeed="0.00" departDelay="0.54" arrival="283.00" arrivalLane="-27260010_1" arrivalPos="45.52" arrivalSpeed="25.15" duration="78.00" routeLength="935.69" waitingTime="2.00" waitingCount="1" stopTime="0.00" timeLoss="22.41" rerouteNo="1" devices="tripinfo_veh112 routing_veh112" vType="veh_passenger" speedFactor="0.93" vaporized=""/>
    <tripinfo id="veh0" depart="0.00" departLane="425382113#0_2" departPos="5.10" departSpeed="0.00" departDelay="0.00" arrival="284.00" arrivalLane="-1292171262_0" arrivalPos="7.40" arrivalSpeed="7.85" duration="284.00" routeLength="2045.02" waitingTime="107.00" waitingCount="4" stopTime="0.00" timeLoss="163.02" rerouteNo="1" devices="tripinfo_veh0 routing_veh0" vType="veh_passenger" speedFactor="1.06" vaporized=""/>
    <tripinfo id="veh25" depart="46.00" departLane="96487801#3_0" departPos="5.10" departSpeed="0.00" departDelay="0.36" arrival="284.00" arrivalLane="440588496#2_0" arrivalPos="22.60" arrivalSpeed="9.37" duration="238.00" routeLength="2777.76" waitingTime="7.00" waitingCount="2" stopTime="0.00" timeLoss="47.62" rerouteNo="1" devices="tripinfo_veh25 routing_veh25" vType="veh_passenger" speedFactor="0.87" vaporized=""/>
    <tripinfo id="veh10" depart="19.00" departLane="746811873_2" departPos="5.10" departSpeed="0.00" departDelay="0.74" arrival="289.00" arrivalLane="32906139#3_0" arrivalPos="49.54" arrivalSpeed="13.86" duration="270.00" routeLength="2465.51" waitingTime="68.00" waitingCount="6" stopTime="0.00" timeLoss="142.92" rerouteNo="1" devices="tripinfo_veh10 routing_veh10" vType="veh_passenger" speedFactor="1.09" vaporized=""/>
    <tripinfo id="veh109" depart="199.00" departLane="690148298#1_0" departPos="5.10" departSpeed="0.00" departDelay="0.01" arrival="289.00" arrivalLane="-744949908_0" arrivalPos="53.28" arrivalSpeed="13.72" duration="90.00" routeLength="548.90" waitingTime="28.00" waitingCount="3" stopTime="0.00" timeLoss="55.68" rerouteNo="1" devices="tripinfo_veh109 routing_veh109" vType="veh_passenger" speedFactor="1.03" vaporized=""/>
    <tripinfo id="veh27" depart="50.00" departLane="-749518015#0_1" departPos="5.10" departSpeed="0.00" departDelay="0.71" arrival="294.00" arrivalLane="-1354862882_0" arrivalPos="31.71" arrivalSpeed="4.81" duration="244.00" routeLength="3275.77" waitingTime="35.00" waitingCount="3" stopTime="0.00" timeLoss="91.99" rerouteNo="1" devices="tripinfo_veh27 routing_veh27" vType="veh_passenger" speedFactor="0.95" vaporized=""/>
    <tripinfo id="veh16" depart="30.00" departLane="569219184_0" departPos="5.10" departSpeed="0.00" departDelay="0.79" arrival="301.00" arrivalLane="-174398011#4_0" arrivalPos="21.96" arrivalSpeed="6.67" duration="271.00" routeLength="2491.72" waitingTime="47.00" waitingCount="4" stopTime="0.00" timeLoss="112.79" rerouteNo="1" devices="tripinfo_veh16 routing_veh16" vType="veh_passenger" speedFactor="0.88" vaporized=""/>
    <tripinfo id="veh15" depart="28.00" departLane="747217018#0_2" departPos="5.10" departSpeed="0.00" departDelay="0.62" arrival="302.00" arrivalLane="319061576#1_0" arrivalPos="161.77" arrivalSpeed="7.38" duration="274.00" routeLength="3021.46" waitingTime="49.00" waitingCount="5" stopTime="0.00" timeLoss="103.45" rerouteNo="1" devices="tripinfo_veh15 routing_veh15" vType="veh_passenger" speedFactor="0.93" vaporized=""/>
    <tripinfo id="veh46" depart="84.00" departLane="747447020#0_0" departPos="3.51" departSpeed="0.00" departDelay="0.02" arrival="304.00" arrivalLane="-987633850_0" arrivalPos="120.37" arrivalSpeed="14.35" duration="220.00" routeLength="2699.91" waitingTime="26.00" waitingCount="2" stopTime="0.00" timeLoss="72.93" rerouteNo="1" devices="tripinfo_veh46 routing_veh46" vType="veh_passenger" speedFactor="1.09" vaporized=""/>
    <tripinfo id="veh51" depart="94.00" departLane="744401172#0_0" departPos="5.10" departSpeed="0.00" departDelay="0.90" arrival="309.00" arrivalLane="28995806#1_0" arrivalPos="45.28" arrivalSpeed="10.64" duration="215.00" routeLength="2024.10" waitingTime="40.00" waitingCount="3" stopTime="0.00" timeLoss="89.00" rerouteNo="1" devices="tripinfo_veh51 routing_veh51" vType="veh_passenger" speedFactor="0.85" vaporized=""/>
    <tripinfo id="veh73" depart="134.00" departLane="705638349#0_3" departPos="5.10" departSpeed="0.00" departDelay="0.73" arrival="312.00" arrivalLane="4940269#3_1" arrivalPos="6.38" arrivalSpeed="23.90" duration="178.00" routeLength="1552.69" waitingTime="53.00" waitingCount="5" stopTime="0.00" timeLoss="115.04" rerouteNo="1" devices="tripinfo_veh73 routing_veh73" vType="veh_passenger" speedFactor="0.94" vaporized=""/>
    <tripinfo id="veh120" depart="220.00" departLane="744999974#0_3" departPos="5.10" departSpeed="0.00" departDelay="0.93" arrival="317.00" arrivalLane="747175705#0_0" arrivalPos="54.20" arrivalSpeed="26.29" duration="97.00" routeLength="688.61" waitingTime="35.00" waitingCount="1" stopTime="0.00" timeLoss="57.32" rerouteNo="1" devices="tripinfo_veh120 routing_veh120" vType="veh_passenger" speedFactor="0.99" vaporized=""/>
    <tripinfo id="veh17" depart="32.00" departLane="-749508466#1_1" departPos="5.10" departSpeed="0.00" departDelay="0.97" arrival="318.00" arrivalLane="1072143217_0" arrivalPos="29.89" arrivalSpeed="12.11" duration="286.00" routeLength="2223.89" waitingTime="97.00" waitingCount="1" stopTime="0.00" timeLoss="137.41" rerouteNo="1" devices="tripinfo_veh17 routing_veh17" vType="veh_passenger" speedFactor="0.94" vaporized=""/>
    <tripinfo id="veh91" depart="167.00" departLane="28539454_0" departPos="5.10" departSpeed="0.00" departDelay="0.87" arrival="320.00" arrivalLane="747005522#1_0" arrivalPos="23.26" arrivalSpeed="10.98" duration="153.00" routeLength="1635.26" waitingTime="23.00" waitingCount="3" stopTime="0.00" timeLoss="62.66" rerouteNo="1" devices="tripinfo_veh91 routing_veh91" vType="veh_passenger" speedFactor="1.02" vaporized=""/>
    <tripinfo id="veh123" depart="225.00" departLane="744645401#1_2" departPos="5.10" departSpeed="0.00" departDelay="0.45" arrival="321.00" arrivalLane="747853025#3_0" arrivalPos="0.25" arrivalSpeed="14.46" duration="96.00" routeLength="661.17" waitingTime="36.00" waitingCount="2" stopTime="0.00" timeLoss="58.13" rerouteNo="1" devices="tripinfo_veh123 routing_veh123" vType="veh_passenger" speedFactor="1.10" vaporized=""/>
    <tripinfo id="veh8" depart="15.00" departLane="1341838019#0_0" departPos="2.16" departSpeed="0.00" departDelay="0.40" arrival="326.00" arrivalLane="-28997044#0_0" arrivalPos="26.53" arrivalSpeed="12.84" duration="311.00" routeLength="2820.23" waitingTime="56.00" waitingCount="2" stopTime="0.00" timeLoss="112.88" rerouteNo="1" devices="tripinfo_veh8 routing_veh8" vType="veh_passenger" speedFactor="0.94" vaporized=""/>
    <tripinfo id="veh85" depart="156.00" departLane="1057384166#1_0" departPos="5.10" departSpeed="0.00" departDelay="0.83" arrival="327.00" arrivalLane="744645399#0_2" arrivalPos="53.45" arrivalSpeed="26.56" duration="171.00" routeLength="1728.85" waitingTime="61.00" waitingCount="4" stopTime="0.00" timeLoss="114.46" rerouteNo="1" devices="tripinfo_veh85 routing_veh85" vType="veh_passenger" speedFactor="1.15" vaporized=""/>
    <tripinfo id="veh78" depart="143.00" departLane="238981582#0_0" departPos="5.10" departSpeed="0.00" departDelay="0.61" arrival="332.00" arrivalLane="747175705#0_0" arrivalPos="54.20" arrivalSpeed="5.69" duration="189.00" routeLength="1726.67" waitingTime="68.00" waitingCount="3" stopTime="0.00" timeLoss="118.00" rerouteNo="1" devices="tripinfo_veh78 routing_veh78" vType="veh_passenger" speedFactor="0.98" vaporized=""/>
    <tripinfo id="veh102" depart="187.00" departLane="746559636_0" departPos="0.20" departSpeed="0.00" departDelay="0.79" arrival="334.00" arrivalLane="569219184_0" arrivalPos="22.12" arrivalSpeed="13.81" duration="147.00" routeLength="379.97" waitingTime="115.00" waitingCount="1" stopTime="0.00" timeLoss="133.10" rerouteNo="1" devices="tripinfo_veh102 routing_veh102" vType="veh_passenger" speedFactor="1.06" vaporized=""/>
    <tripinfo id="veh66" depart="121.00" departLane="-749514001#1_0" departPos="5.10" departSpeed="0.00" departDelay="0.51" arrival="336.00" arrivalLane="748795306_0" arrivalPos="65.68" arrivalSpeed="10.96" duration="215.00" routeLength="1690.16" waitingTime="77.00" waitingCount="2" stopTime="0.00" timeLoss="104.91" rerouteNo="1" devices="tripinfo_veh66 routing_veh66" vType="veh_passenger" speedFactor="0.88" vaporized=""/>
    <tripinfo id="veh135" depart="247.00" departLane="744999973#1_0" departPos="5.10" departSpeed="0.00" departDelay="0.55" arrival="337.00" arrivalLane="-747853024#0_0" arrivalPos="18.33" arrivalSpeed="13.28" duration="90.00" routeLength="1069.31" waitingTime="1.00" waitingCount="1" stopTime="0.00" timeLoss="30.30" rerouteNo="1" devices="tripinfo_veh135 routing_veh135" vType="veh_passenger" speedFactor="1.04" vaporized=""/>
    <tripinfo id="veh60" depart="110.00" departLane="1057384166#1_0" departPos="5.10" departSpeed="0.00" departDelay="0.47" arrival="338.00" arrivalLane="747228982#1_1" arrivalPos="35.69" arrivalSpeed="20.62" duration="228.00" routeLength="2070.38" waitingTime="66.00" waitingCount="5" stopTime="0.00" timeLoss="137.48" rerouteNo="1" devices="tripinfo_veh60 routing_veh60" vType="veh_passenger" speedFactor="0.97" vaporized=""/>
    <tripinfo id="veh70" depart="128.00" departLane="27274189#0_1" departPos="5.10" departSpeed="14.20" departDelay="0.21" arrival="339.00" arrivalLane="744645401#1_1" arrivalPos="110.10" arrivalSpeed="28.13" duration="211.00" routeLength="2817.64" waitingTime="28.00" waitingCount="3" stopTime="0.00" timeLoss="75.10" rerouteNo="1" devices="tripinfo_veh70 routing_veh70" vType="veh_passenger" speedFactor="1.02" vaporized=""/>
    <tripinfo id="veh127" depart="232.00" departLane="-1292162272#0_1" departPos="3.92" departSpeed="0.00" departDelay="0.15" arrival="344.00" arrivalLane="706539634#8_0" arrivalPos="13.46" arrivalSpeed="15.13" duration="112.00" routeLength="1699.44" waitingTime="0.00" waitingCount="0" stopTime="0.00" timeLoss="23.19" rerouteNo="1" devices="tripinfo_veh127 routing_veh127" vType="veh_passenger" speedFactor="1.15" vaporized=""/>
    <tripinfo id="veh88" depart="161.00" departLane="-366853083#0_0" departPos="5.10" departSpeed="0.00" departDelay="0.35" arrival="349.00" arrivalLane="1072192656_0" arrivalPos="27.23" arrivalSpeed="13.24" duration="188.00" routeLength="1966.41" waitingTime="0.00" waitingCount="0" stopTime="0.00" timeLoss="44.30" rerouteNo="1" devices="tripinfo_veh88 routing_veh88" vType="veh_passenger" speedFactor="1.04" vaporized=""/>
    <tripinfo id="veh147" depart="269.00" departLane="-1008051258#5_0" departPos="5.10" departSpeed="11.81" departDelay="0.64" arrival="350.00" arrivalLane="770797802#3_0" arrivalPos="14.30" arrivalSpeed="14.84" duration="81.00" routeLength="899.12" waitingTime="0.00" waitingCount="0" stopTime="0.00" timeLoss="12.20" rerouteNo="1" devices="tripinfo_veh147 routing_veh147" vType="veh_passenger" speedFactor="1.14" vaporized=""/>
    <tripinfo id="veh54" depart="99.00" departLane="-1279681436#0_0" departPos="5.10" departSpeed="0.00" departDelay="0.42" arrival="351.00" arrivalLane="792388509_0" arrivalPos="91.55" arrivalSpeed="15.17" duration="252.00" routeLength="3383.32" waitingTime="34.00" waitingCount="2" stopTime="0.00" timeLoss="99.05" rerouteNo="1" devices="tripinfo_veh54 routing_veh54" vType="veh_passenger" speedFactor="1.10" vaporized=""/>
    <tripinfo id="veh81" depart="148.00" departLane="746981175#1_0" departPos="5.10" departSpeed="0.00" departDelay="0.13" arrival="352.00" arrivalLane="-354718298_0" arrivalPos="116.52" arrivalSpeed="13.08" duration="204.00" routeLength="3693.23" waitingTime="18.00" waitingCount="1" stopTime="0.00" timeLoss="54.69" rerouteNo="1" devices="tripinfo_veh81 routing_veh81" vType="veh_passenger" speedFactor="1.03" vaporized=""/>
    <tripinfo id="veh77" depart="141.00" departLane="-96489260#3_0" departPos="5.10" departSpeed="0.00" departDelay="0.43" arrival="362.00" arrivalLane="758946648#1_0" arrivalPos="135.52" arrivalSpeed="16.44" duration="221.00" routeLength="2214.43" waitingTime="84.00" waitingCount="3" stopTime="0.00" timeLoss="122.53" rerouteNo="1" devices="tripinfo_veh77 routing_veh77" vType="veh_passenger" speedFactor="1.03" vaporized=""/>
    <tripinfo id="veh92" depart="168.00" departLane="-428836643#1_0" departPos="5.10" departSpeed="0.00" departDelay="0.05" arrival="362.00" arrivalLane="894168378_0" arrivalPos="50.96" arrivalSpeed="12.05" duration="194.00" routeLength="1200.92" waitingTime="63.00" waitingCount="5" stopTime="0.00" timeLoss="95.88" rerouteNo="1" devices="tripinfo_veh92 routing_veh92" vType="veh_passenger" speedFactor="0.89" vaporized=""/>
    <tripinfo id="veh59" depart="108.00" departLane="744615658#2_2" departPos="5.10" departSpeed="0.00" departDelay="0.29" arrival="364.00" arrivalLane="-28553959#0_0" arrivalPos="82.57" arrivalSpeed="12.98" duration="256.00" routeLength="3065.21" waitingTime="27.00" waitingCount="2" stopTime="0.00" timeLoss="78.25" rerouteNo="1" devices="tripinfo_veh59 routing_veh59" vType="veh_passenger" speedFactor="1.02" vaporized=""/>
    <tripinfo id="veh82" depart="150.00" departLane="27494642_2" departPos="5.10" departSpeed="16.33" departDelay="0.30" arrival="365.00" arrivalLane="-746649485#0_0" arrivalPos="86.80" arrivalSpeed="13.42" duration="215.00" routeLength="2045.03" waitingTime="70.00" waitingCount="4" stopTime="0.00" timeLoss="114.33" rerouteNo="1" devices="tripinfo_veh82 routing_veh82" vType="veh_passenger" speedFactor="1.00" vaporized=""/>
    <tripinfo id="veh65" depart="119.00" departLane="-750575819#0_1" departPos="5.10" departSpeed="0.00" departDelay="0.34" arrival="368.00" arrivalLane="-747005528#1_0" arrivalPos="27.67" arrivalSpeed="11.84" duration="249.00" routeLength="1769.61" waitingTime="76.00" waitingCount="4" stopTime="0.00" timeLoss="132.75" rerouteNo="1" devices="tripinfo_veh65 routing_veh65" vType="veh_passenger" speedFactor="0.94" vaporized=""/>
    <tripinfo id="veh170" depart="311.00" departLane="4940249#2_1" departPos="5.10" departSpeed="0.00" departDelay="0.65" arrival="368.00" arrivalLane="945694569#1_1" arrivalPos="24.55" arrivalSpeed="23.15" duration="57.00" routeLength="546.58" waitingTime="10.00" waitingCount="1" stopTime="0.00" timeLoss="25.71" rerouteNo="1" devices="tripinfo_veh170 routing_veh170" vType="veh_passenger" speedFactor="1.03" vaporized=""/>
    <tripinfo id="veh47" depart="86.00" departLane="28539175#0_0" departPos="5.10" departSpeed="13.85" departDelay="0.20" arrival="370.00" arrivalLane="-440588496#8_1" arrivalPos="27.12" arrivalSpeed="10.10" duration="284.00" routeLength="3888.57" waitingTime="27.00" waitingCount="3" stopTime="0.00" timeLoss="88.05" rerouteNo="1" devices="tripinfo_veh47 routing_veh47" vType="veh_passenger" speedFactor="1.00" vaporized=""/>
    <tripinfo id="veh52" depart="95.00" departLane="744645397#1_2" departPos="5.10" departSpeed="0.00" departDelay="0.07" arrival="370.00" arrivalLane="28553959#9_0" arrivalPos="73.80" arrivalSpeed="15.47" duration="275.00" routeLength="3100.26" waitingTime="65.00" waitingCount="5" stopTime="0.00" timeLoss="154.28" rerouteNo="1" devices="tripinfo_veh52 routing_veh52" vType="veh_passenger" speedFactor="1.17" vaporized=""/>
    <tripinfo id="veh168" depart="307.00" departLane="-96489260#1_1" departPos="5.10" departSpeed="0.00" departDelay="0.30" arrival="370.00" arrivalLane="746807318#0_1" arrivalPos="24.65" arrivalSpeed="9.99" duration="63.00" routeLength="636.94" waitingTime="0.00" waitingCount="0" stopTime="0.00" timeLoss="10.24" rerouteNo="1" devices="tripinfo_veh168 routing_veh168" vType="veh_passenger" speedFactor="0.91" vaporized=""/>
    <tripinfo id="veh116" depart="212.00" departLane="749508470_1" departPos="5.10" departSpeed="0.00" departDelay="0.23" arrival="371.00" arrivalLane="28996820#3_0" arrivalPos="37.46" arrivalSpeed="13.13" duration="159.00" routeLength="1921.14" waitingTime="18.00" waitingCount="2" stopTime="0.00" timeLoss="50.15" rerouteNo="1" devices="tripinfo_veh116 routing_veh116" vType="veh_passenger" speedFactor="1.10" vaporized=""/>