<?xml version="1.0" encoding="UTF-8"?>

<!-- generated on 2026-01-14T13:43:42.847890+08:00 by Eclipse SUMO GUI 1.25.0
<sumoConfiguration xmlns:xsi="http://www.w3.org/2001/XMLSchema-instance" xsi:noNamespaceSchemaLocation="http://sumo.dlr.de/xsd/sumoConfiguration.xsd">

    <input>
        <net-file value="C:\Users\ASUS\Documents\SUMO_Networks\scenarios\bgc_full\osm.net.xml.gz"/>
        <route-files value="C:\Users\ASUS\Documents\SUMO_Networks\scenarios\bgc_full\trips.xml"/>
        <additional-files value="C:\Users\ASUS\Documents\SUMO_Networks\scenarios\bgc_full\osm.poly.xml.gz,C:\Users\ASUS\Documents\SUMO_Networks\scenarios\bgc_full\output.add.xml"/>
    </input>

    <output>
        <summary-output value="C:\Users\ASUS\Documents\SUMO_Networks\scenarios\bgc_full\data_selfish_summary.xml"/>
        <tripinfo-output value="C:\Users\ASUS\Documents\SUMO_Networks\scenarios\bgc_full\data_selfish_tripinfo.xml"/>
        <statistic-output value="C:\Users\ASUS\Documents\SUMO_Networks\scenarios\bgc_full\data_selfish_stats.xml"/>
    </output>

    <processing>
        <ignore-route-errors value="true"/>
        <time-to-teleport value="-1"/>
        <tls.actuated.jam-threshold value="30"/>
    </processing>

    <routing>
        <device.rerouting.adaptation-steps value="18"/>
        <device.rerouting.adaptation-interval value="10"/>
    </routing>

    <report>
        <verbose value="true"/>
        <duration-log.statistics value="true"/>
        <no-step-log value="true"/>
    </report>

    <gui_only>
        <gui-settings-file value="C:\Users\ASUS\Documents\SUMO_Networks\scenarios\bgc_full\osm.view.xml"/>
    </gui_only>

</sumoConfiguration>
-->

<tripinfos xmlns:xsi="http://www.w3.org/2001/XMLSchema-instance" xsi:noNamespaceSchemaLocation="http://sumo.dlr.de/xsd/tripinfo_file.xsd">
</tripinfos>
