<?xml version="1.0" encoding="UTF-8"?>

<!-- generated on 2026-01-19T18:01:12.580708+08:00 by Eclipse SUMO GUI 1.25.0
<sumoConfiguration xmlns:xsi="http://www.w3.org/2001/XMLSchema-instance" xsi:noNamespaceSchemaLocation="http://sumo.dlr.de/xsd/sumoConfiguration.xsd">

    <input>
        <net-file value="final_map.net.xml"/>
        <route-files value="trips_low.xml"/>
        <additional-files value="osm.poly.xml.gz,output.add.xml,vtypes.add.xml"/>
    </input>

    <output>
        <summary-output value="data\data_selfish_low_summary.xml"/>
        <tripinfo-output value="data\data_selfish_low_tripinfo.xml"/>
        <statistic-output value="data\data_selfish_low_stats.xml"/>
    </output>

    <processing>
        <ignore-route-errors value="true"/>
        <time-to-teleport value="300"/>
        <tls.actuated.jam-threshold value="30"/>
    </processing>

    <routing>
        <device.rerouting.adaptation-steps value="18"/>
        <device.rerouting.adaptation-interval value="10"/>
    </routing>

    <report>
        <verbose value="true"/>
        <duration-log.statistics value="true"/>
        <no-step-log value="true"/>
    </report>

    <emissions>
        <device.emissions.probability value="1.0"/>
    </emissions>

    <gui_only>
        <gui-settings-file value="osm.view.xml"/>
    </gui_only>

</sumoConfiguration>
-->

<meandata xmlns:xsi="http://www.w3.org/2001/XMLSchema-instance" xsi:noNamespaceSchemaLocation="http://sumo.dlr.de/xsd/meandata_file.xsd">
    <interval begin="0.00" end="1146.00" id="wizard_example">
        <edge id="-1008051258#0" sampledSeconds="50.82" traveltime="3.43" overlapTraveltime="3.91" density="0.92" overlapDensity="1.04" laneDensity="0.92" occupancy="0.42" waitingTime="0.00" timeLoss="6.84" speed="12.02" speedRelative="0.87" departed="0" arrived="0" entered="13" left="13" laneChangedFrom="0" laneChangedTo="0" flow="39.66"/>
        <edge id="-1008051258#1" sampledSeconds="24.42" traveltime="1.88" overlapTraveltime="2.22" density="0.79" overlapDensity="0.93" laneDensity="0.79" occupancy="0.35" waitingTime="0.00" timeLoss="3.37" speed="12.33" speedRelative="0.89" departed="0" arrived="0" entered="11" left="11" laneChangedFrom="0" laneChangedTo="0" flow="35.10"/>
        <edge id="-1008051258#2" sampledSeconds="42.57" traveltime="2.91" overlapTraveltime="3.55" density="1.30" overlapDensity="1.58" laneDensity="1.30" occupancy="0.60" waitingTime="0.00" timeLoss="18.40" speed="7.89" speedRelative="0.57" departed="0" arrived="0" entered="12" left="12" laneChangedFrom="0" laneChangedTo="0" flow="36.90"/>
        <edge id="-1008051258#3" sampledSeconds="38.43" traveltime="2.58" overlapTraveltime="3.20" density="1.31" overlapDensity="1.63" laneDensity="1.31" occupancy="0.62" waitingTime="0.00" timeLoss="16.93" speed="7.84" speedRelative="0.56" departed="0" arrived="0" entered="12" left="12" laneChangedFrom="0" laneChangedTo="0" flow="36.97"/>
        <edge id="-1008051258#4" sampledSeconds="36.41" traveltime="2.59" overlapTraveltime="3.03" density="1.08" overlapDensity="1.26" laneDensity="1.08" occupancy="0.47" waitingTime="0.00" timeLoss="11.00" speed="9.77" speedRelative="0.70" departed="0" arrived="0" entered="12" left="12" laneChangedFrom="0" laneChangedTo="0" flow="37.96"/>
        <edge id="-1008051258#5" sampledSeconds="4.98" traveltime="5.37" overlapTraveltime="5.87" density="0.15" overlapDensity="0.17" laneDensity="0.15" occupancy="0.07" waitingTime="0.00" timeLoss="2.94" speed="5.22" speedRelative="0.38" departed="1" arrived="0" entered="0" left="1" laneChangedFrom="0" laneChangedTo="0" flow="2.78"/>
        <edge id="-101376482" sampledSeconds="0.00" departed="0" arrived="0" entered="0" left="0" laneChangedFrom="0" laneChangedTo="0"/>
        <edge id="-101376495#1" sampledSeconds="0.00" departed="0" arrived="0" entered="0" left="0" laneChangedFrom="0" laneChangedTo="0"/>
        <edge id="-101470402#0" sampledSeconds="0.00" departed="0" arrived="0" entered="0" left="0" laneChangedFrom="0" laneChangedTo="0"/>
        <edge id="-101470402#1" sampledSeconds="0.00" departed="0" arrived="0" entered="0" left="0" laneChangedFrom="0" laneChangedTo="0"/>
        <edge id="-101476579" sampledSeconds="63.12" traveltime="4.58" overlapTraveltime="5.26" density="1.34" overlapDensity="1.54" laneDensity="0.67" occupancy="0.30" waitingTime="0.00" timeLoss="7.95" speed="7.66" speedRelative="0.92" departed="0" arrived="0" entered="12" left="12" laneChangedFrom="0" laneChangedTo="0" flow="36.93"/>
        <edge id="-101476581" sampledSeconds="3.26" overlapTraveltime="1.70" density="0.00" overlapDensity="14.24" laneDensity="0.00" occupancy="0.28" waitingTime="0.00" timeLoss="2.16" speed="2.76" speedRelative="0.20" departed="2" arrived="0" entered="0" left="2" laneChangedFrom="0" laneChangedTo="0" flow="0.00"/>
        <edge id="-1022486131#1" sampledSeconds="0.00" departed="0" arrived="0" entered="0" left="0" laneChangedFrom="0" laneChangedTo="0"/>
        <edge id="-1026300613" sampledSeconds="0.00" departed="0" arrived="0" entered="0" left="0" laneChangedFrom="0" laneChangedTo="0"/>
        <edge id="-1042494593#0" sampledSeconds="0.00" departed="0" arrived="0" entered="0" left="0" laneChangedFrom="0" laneChangedTo="0"/>
        <edge id="-104357790#0" sampledSeconds="0.00" departed="0" arrived="0" entered="0" left="0" laneChangedFrom="0" laneChangedTo="0"/>
        <edge id="-104357790#1" sampledSeconds="0.00" departed="0" arrived="0" entered="0" left="0" laneChangedFrom="0" laneChangedTo="0"/>
        <edge id="-1064374314#0" sampledSeconds="0.00" departed="0" arrived="0" entered="0" left="0" laneChangedFrom="0" laneChangedTo="0"/>
        <edge id="-1064374314#1" sampledSeconds="0.00" departed="0" arrived="0" entered="0" left="0" laneChangedFrom="0" laneChangedTo="0"/>
        <edge id="-1064386463" sampledSeconds="0.00" departed="0" arrived="0" entered="0" left="0" laneChangedFrom="0" laneChangedTo="0"/>
        <edge id="-1064386464" sampledSeconds="16.34" traveltime="3.76" overlapTraveltime="4.11" density="0.32" overlapDensity="0.34" laneDensity="0.32" occupancy="0.14" waitingTime="0.00" timeLoss="3.04" speed="11.16" speedRelative="0.80" departed="0" arrived="4" entered="4" left="0" laneChangedFrom="0" laneChangedTo="0" flow="12.75"/>
        <edge id="-1065726171#0" sampledSeconds="27.58" traveltime="3.91" overlapTraveltime="4.60" density="0.70" overlapDensity="0.83" laneDensity="0.70" occupancy="0.32" waitingTime="0.00" timeLoss="2.32" speed="7.31" speedRelative="0.88" departed="0" arrived="0" entered="6" left="6" laneChangedFrom="0" laneChangedTo="0" flow="18.53"/>
        <edge id="-1065726171#1" sampledSeconds="230.63" traveltime="4.57" overlapTraveltime="5.49" density="5.24" overlapDensity="6.30" laneDensity="5.24" occupancy="2.43" waitingTime="3.00" timeLoss="52.31" speed="6.64" speedRelative="0.80" departed="0" arrived="0" entered="42" left="42" laneChangedFrom="0" laneChangedTo="0" flow="125.23"/>
        <edge id="-1065726174" sampledSeconds="12.54" traveltime="5.92" overlapTraveltime="6.27" density="0.17" overlapDensity="0.18" laneDensity="0.17" occupancy="0.07" waitingTime="0.00" timeLoss="2.85" speed="10.52" speedRelative="0.76" departed="0" arrived="2" entered="2" left="0" laneChangedFrom="0" laneChangedTo="0" flow="6.37"/>
        <edge id="-1071486787" sampledSeconds="0.00" departed="0" arrived="0" entered="0" left="0" laneChangedFrom="0" laneChangedTo="0"/>
        <edge id="-1071486788" sampledSeconds="0.00" departed="0" arrived="0" entered="0" left="0" laneChangedFrom="0" laneChangedTo="0"/>
        <edge id="-1071486789" sampledSeconds="0.00" departed="0" arrived="0" entered="0" left="0" laneChangedFrom="0" laneChangedTo="0"/>
        <edge id="-1071787530" sampledSeconds="0.00" departed="0" arrived="0" entered="0" left="0" laneChangedFrom="0" laneChangedTo="0"/>
        <edge id="-1072138522" sampledSeconds="9.09" traveltime="4.24" overlapTraveltime="4.54" density="0.15" overlapDensity="0.16" laneDensity="0.15" occupancy="0.07" waitingTime="0.00" timeLoss="1.96" speed="11.91" speedRelative="0.86" departed="0" arrived="2" entered="2" left="0" laneChangedFrom="0" laneChangedTo="0" flow="6.39"/>
        <edge id="-1072143217" sampledSeconds="0.00" departed="0" arrived="0" entered="0" left="0" laneChangedFrom="0" laneChangedTo="0"/>
        <edge id="-1072149528#0" sampledSeconds="0.00" departed="0" arrived="0" entered="0" left="0" laneChangedFrom="0" laneChangedTo="0"/>
        <edge id="-1072149528#1" sampledSeconds="0.00" departed="0" arrived="0" entered="0" left="0" laneChangedFrom="0" laneChangedTo="0"/>
        <edge id="-1072149529#0" sampledSeconds="0.00" departed="0" arrived="0" entered="0" left="0" laneChangedFrom="0" laneChangedTo="0"/>
        <edge id="-1072149529#1" sampledSeconds="0.00" departed="0" arrived="0" entered="0" left="0" laneChangedFrom="0" laneChangedTo="0"/>
        <edge id="-1072155402#0" sampledSeconds="0.00" departed="0" arrived="0" entered="0" left="0" laneChangedFrom="0" laneChangedTo="0"/>
        <edge id="-1072155402#1" sampledSeconds="0.00" departed="0" arrived="0" entered="0" left="0" laneChangedFrom="0" laneChangedTo="0"/>
        <edge id="-1072176585" sampledSeconds="8.83" traveltime="2.64" overlapTraveltime="3.03" density="0.28" overlapDensity="0.31" laneDensity="0.28" occupancy="0.12" waitingTime="0.00" timeLoss="2.66" speed="9.72" speedRelative="0.70" departed="0" arrived="3" entered="3" left="0" laneChangedFrom="0" laneChangedTo="0" flow="9.70"/>
        <edge id="-1072192654" sampledSeconds="11.50" traveltime="2.28" overlapTraveltime="2.87" density="0.42" overlapDensity="0.53" laneDensity="0.42" occupancy="0.20" waitingTime="0.00" timeLoss="4.20" speed="8.16" speedRelative="0.59" departed="0" arrived="0" entered="4" left="4" laneChangedFrom="0" laneChangedTo="0" flow="12.34"/>
        <edge id="-1072192655" sampledSeconds="0.00" departed="0" arrived="0" entered="0" left="0" laneChangedFrom="0" laneChangedTo="0"/>
        <edge id="-1072192656" sampledSeconds="0.00" departed="0" arrived="0" entered="0" left="0" laneChangedFrom="0" laneChangedTo="0"/>
        <edge id="-1072192658" sampledSeconds="0.00" departed="0" arrived="0" entered="0" left="0" laneChangedFrom="0" laneChangedTo="0"/>
        <edge id="-1072192659#0" sampledSeconds="5.51" traveltime="1.51" overlapTraveltime="1.84" density="0.19" overlapDensity="0.23" laneDensity="0.19" occupancy="0.08" waitingTime="0.00" timeLoss="0.22" speed="13.98" speedRelative="1.01" departed="0" arrived="0" entered="3" left="3" laneChangedFrom="0" laneChangedTo="0" flow="9.42"/>
        <edge id="-1072513714" sampledSeconds="0.00" departed="0" arrived="0" entered="0" left="0" laneChangedFrom="0" laneChangedTo="0"/>
        <edge id="-1072977677" sampledSeconds="0.00" departed="0" arrived="0" entered="0" left="0" laneChangedFrom="0" laneChangedTo="0"/>
        <edge id="-1072992795" sampledSeconds="8.78" traveltime="4.16" overlapTraveltime="4.68" density="0.21" overlapDensity="0.24" laneDensity="0.21" occupancy="0.10" waitingTime="0.00" timeLoss="3.54" speed="7.88" speedRelative="0.57" departed="1" arrived="1" entered="1" left="1" laneChangedFrom="0" laneChangedTo="0" flow="5.91"/>
        <edge id="-1074375997" sampledSeconds="0.00" departed="0" arrived="0" entered="0" left="0" laneChangedFrom="0" laneChangedTo="0"/>
        <edge id="-1077777151" sampledSeconds="0.00" departed="0" arrived="0" entered="0" left="0" laneChangedFrom="0" laneChangedTo="0"/>
        <edge id="-1077777153" sampledSeconds="0.00" departed="0" arrived="0" entered="0" left="0" laneChangedFrom="0" laneChangedTo="0"/>
        <edge id="-1077777154" sampledSeconds="0.00" departed="0" arrived="0" entered="0" left="0" laneChangedFrom="0" laneChangedTo="0"/>
        <edge id="-1077777156" sampledSeconds="0.00" departed="0" arrived="0" entered="0" left="0" laneChangedFrom="0" laneChangedTo="0"/>
        <edge id="-1077793341#0" sampledSeconds="0.00" departed="0" arrived="0" entered="0" left="0" laneChangedFrom="0" laneChangedTo="0"/>
        <edge id="-1077807236" sampledSeconds="0.00" departed="0" arrived="0" entered="0" left="0" laneChangedFrom="0" laneChangedTo="0"/>
        <edge id="-1087197498" sampledSeconds="0.00" departed="0" arrived="0" entered="0" left="0" laneChangedFrom="0" laneChangedTo="0"/>
        <edge id="-1088170204" sampledSeconds="0.00" departed="0" arrived="0" entered="0" left="0" laneChangedFrom="0" laneChangedTo="0"/>
        <edge id="-1092255860" sampledSeconds="373.57" traveltime="13.10" overlapTraveltime="14.01" density="4.74" overlapDensity="5.06" laneDensity="4.74" occupancy="2.13" waitingTime="0.00" timeLoss="43.13" speed="4.92" speedRelative="0.89" departed="0" arrived="0" entered="27" left="26" laneChangedFrom="0" laneChangedTo="0" flow="83.92"/>
        <edge id="-1120242622" sampledSeconds="0.00" departed="0" arrived="0" entered="0" left="0" laneChangedFrom="0" laneChangedTo="0"/>
        <edge id="-1135617969" sampledSeconds="0.00" departed="0" arrived="0" entered="0" left="0" laneChangedFrom="0" laneChangedTo="0"/>
        <edge id="-1149864133" sampledSeconds="0.00" departed="0" arrived="0" entered="0" left="0" laneChangedFrom="0" laneChangedTo="0"/>
        <edge id="-1154155306#1" sampledSeconds="0.00" departed="0" arrived="0" entered="0" left="0" laneChangedFrom="0" laneChangedTo="0"/>
        <edge id="-1154155307#1" sampledSeconds="0.00" departed="0" arrived="0" entered="0" left="0" laneChangedFrom="0" laneChangedTo="0"/>
        <edge id="-1156000158" sampledSeconds="0.00" departed="0" arrived="0" entered="0" left="0" laneChangedFrom="0" laneChangedTo="0"/>
        <edge id="-1170881169#0" sampledSeconds="0.00" departed="0" arrived="0" entered="0" left="0" laneChangedFrom="0" laneChangedTo="0"/>
        <edge id="-1170881169#1" sampledSeconds="0.00" departed="0" arrived="0" entered="0" left="0" laneChangedFrom="0" laneChangedTo="0"/>
        <edge id="-117159637" sampledSeconds="0.00" departed="0" arrived="0" entered="0" left="0" laneChangedFrom="0" laneChangedTo="0"/>
        <edge id="-1212504575" sampledSeconds="5.91" traveltime="1.62" overlapTraveltime="1.97" density="0.20" overlapDensity="0.24" laneDensity="0.10" occupancy="0.04" waitingTime="0.00" timeLoss="0.33" speed="13.16" speedRelative="0.95" departed="0" arrived="0" entered="3" left="3" laneChangedFrom="0" laneChangedTo="0" flow="9.40"/>
        <edge id="-1212506817#1" sampledSeconds="78.98" traveltime="1.81" overlapTraveltime="2.13" density="1.61" overlapDensity="1.90" laneDensity="0.81" occupancy="0.37" waitingTime="0.00" timeLoss="17.58" speed="19.13" speedRelative="0.69" departed="0" arrived="0" entered="37" left="37" laneChangedFrom="0" laneChangedTo="0" flow="110.95"/>
        <edge id="-1214459846" sampledSeconds="44.52" traveltime="6.02" overlapTraveltime="6.36" density="0.51" overlapDensity="0.54" laneDensity="0.51" occupancy="0.23" waitingTime="0.00" timeLoss="6.24" speed="12.02" speedRelative="0.87" departed="0" arrived="0" entered="7" left="7" laneChangedFrom="0" laneChangedTo="0" flow="22.12"/>
        <edge id="-1234167259" sampledSeconds="0.00" departed="0" arrived="0" entered="0" left="0" laneChangedFrom="0" laneChangedTo="0"/>
        <edge id="-1234167260#0" sampledSeconds="0.00" departed="0" arrived="0" entered="0" left="0" laneChangedFrom="0" laneChangedTo="0"/>
        <edge id="-1234167260#1" sampledSeconds="0.00" departed="0" arrived="0" entered="0" left="0" laneChangedFrom="0" laneChangedTo="0"/>
        <edge id="-1234167261#0" sampledSeconds="0.00" departed="0" arrived="0" entered="0" left="0" laneChangedFrom="0" laneChangedTo="0"/>
        <edge id="-1234167261#1" sampledSeconds="0.00" departed="0" arrived="0" entered="0" left="0" laneChangedFrom="0" laneChangedTo="0"/>
        <edge id="-1234167261#2" sampledSeconds="0.00" departed="0" arrived="0" entered="0" left="0" laneChangedFrom="0" laneChangedTo="0"/>
        <edge id="-1234167261#3" sampledSeconds="0.00" departed="0" arrived="0" entered="0" left="0" laneChangedFrom="0" laneChangedTo="0"/>
        <edge id="-1234167262#0" sampledSeconds="0.00" departed="0" arrived="0" entered="0" left="0" laneChangedFrom="0" laneChangedTo="0"/>
        <edge id="-1234167262#1" sampledSeconds="0.00" departed="0" arrived="0" entered="0" left="0" laneChangedFrom="0" laneChangedTo="0"/>
        <edge id="-1234167263" sampledSeconds="0.00" departed="0" arrived="0" entered="0" left="0" laneChangedFrom="0" laneChangedTo="0"/>
        <edge id="-1234167264#0" sampledSeconds="0.00" departed="0" arrived="0" entered="0" left="0" laneChangedFrom="0" laneChangedTo="0"/>
        <edge id="-1234167264#1" sampledSeconds="0.00" departed="0" arrived="0" entered="0" left="0" laneChangedFrom="0" laneChangedTo="0"/>
        <edge id="-1234167265#0" sampledSeconds="0.00" departed="0" arrived="0" entered="0" left="0" laneChangedFrom="0" laneChangedTo="0"/>
        <edge id="-1234167265#1" sampledSeconds="0.00" departed="0" arrived="0" entered="0" left="0" laneChangedFrom="0" laneChangedTo="0"/>
        <edge id="-1234167266" sampledSeconds="0.00" departed="0" arrived="0" entered="0" left="0" laneChangedFrom="0" laneChangedTo="0"/>
        <edge id="-1234167267" sampledSeconds="0.00" departed="0" arrived="0" entered="0" left="0" laneChangedFrom="0" laneChangedTo="0"/>
        <edge id="-1234167268" sampledSeconds="0.00" departed="0" arrived="0" entered="0" left="0" laneChangedFrom="0" laneChangedTo="0"/>
        <edge id="-1234167270" sampledSeconds="0.00" departed="0" arrived="0" entered="0" left="0" laneChangedFrom="0" laneChangedTo="0"/>
        <edge id="-1236777595" sampledSeconds="0.00" departed="0" arrived="0" entered="0" left="0" laneChangedFrom="0" laneChangedTo="0"/>
        <edge id="-1237132882" sampledSeconds="0.00" departed="0" arrived="0" entered="0" left="0" laneChangedFrom="0" laneChangedTo="0"/>
        <edge id="-1272650816" sampledSeconds="0.00" departed="0" arrived="0" entered="0" left="0" laneChangedFrom="0" laneChangedTo="0"/>
        <edge id="-1272650818" sampledSeconds="5.75" traveltime="4.91" overlapTraveltime="5.75" density="0.10" overlapDensity="0.12" laneDensity="0.10" occupancy="0.05" waitingTime="0.00" timeLoss="1.84" speed="8.36" speedRelative="0.60" departed="0" arrived="0" entered="1" left="1" laneChangedFrom="0" laneChangedTo="0" flow="2.96"/>
        <edge id="-1274179998#0" sampledSeconds="33.30" traveltime="1.82" overlapTraveltime="2.39" density="1.51" overlapDensity="1.97" laneDensity="1.51" occupancy="0.67" waitingTime="0.00" timeLoss="11.30" speed="8.03" speedRelative="0.58" departed="0" arrived="1" entered="14" left="13" laneChangedFrom="0" laneChangedTo="0" flow="43.57"/>
        <edge id="-1275244963" sampledSeconds="3.81" traveltime="1.41" overlapTraveltime="1.90" density="0.23" overlapDensity="0.31" laneDensity="0.23" occupancy="0.10" waitingTime="0.00" timeLoss="1.54" speed="7.95" speedRelative="0.57" departed="0" arrived="1" entered="2" left="1" laneChangedFrom="0" laneChangedTo="0" flow="6.61"/>
        <edge id="-1278082741#0" sampledSeconds="0.00" departed="0" arrived="0" entered="0" left="0" laneChangedFrom="0" laneChangedTo="0"/>
        <edge id="-1278089780" sampledSeconds="0.00" departed="0" arrived="0" entered="0" left="0" laneChangedFrom="0" laneChangedTo="0"/>
        <edge id="-1278144668" sampledSeconds="0.00" departed="0" arrived="0" entered="0" left="0" laneChangedFrom="0" laneChangedTo="0"/>
        <edge id="-1278153203#0" sampledSeconds="0.00" departed="0" arrived="0" entered="0" left="0" laneChangedFrom="0" laneChangedTo="0"/>
        <edge id="-1278153203#1" sampledSeconds="0.00" departed="0" arrived="0" entered="0" left="0" laneChangedFrom="0" laneChangedTo="0"/>
        <edge id="-1278169411" sampledSeconds="0.00" departed="0" arrived="0" entered="0" left="0" laneChangedFrom="0" laneChangedTo="0"/>
        <edge id="-1278348712" sampledSeconds="0.00" departed="0" arrived="0" entered="0" left="0" laneChangedFrom="0" laneChangedTo="0"/>
        <edge id="-1278350843" sampledSeconds="0.00" departed="0" arrived="0" entered="0" left="0" laneChangedFrom="0" laneChangedTo="0"/>
        <edge id="-1278350844" sampledSeconds="0.00" departed="0" arrived="0" entered="0" left="0" laneChangedFrom="0" laneChangedTo="0"/>
        <edge id="-1278357471#1" sampledSeconds="0.00" departed="0" arrived="0" entered="0" left="0" laneChangedFrom="0" laneChangedTo="0"/>
        <edge id="-1278358006" sampledSeconds="0.00" departed="0" arrived="0" entered="0" left="0" laneChangedFrom="0" laneChangedTo="0"/>
        <edge id="-1278364486" sampledSeconds="0.00" departed="0" arrived="0" entered="0" left="0" laneChangedFrom="0" laneChangedTo="0"/>
        <edge id="-1278367502" sampledSeconds="0.00" departed="0" arrived="0" entered="0" left="0" laneChangedFrom="0" laneChangedTo="0"/>
        <edge id="-1278367504#0" sampledSeconds="0.00" departed="0" arrived="0" entered="0" left="0" laneChangedFrom="0" laneChangedTo="0"/>
        <edge id="-1278370290#1" sampledSeconds="0.00" departed="0" arrived="0" entered="0" left="0" laneChangedFrom="0" laneChangedTo="0"/>
        <edge id="-1278370872" sampledSeconds="0.00" departed="0" arrived="0" entered="0" left="0" laneChangedFrom="0" laneChangedTo="0"/>
        <edge id="-1278654471" sampledSeconds="0.00" departed="0" arrived="0" entered="0" left="0" laneChangedFrom="0" laneChangedTo="0"/>
        <edge id="-1278654478" sampledSeconds="0.00" departed="0" arrived="0" entered="0" left="0" laneChangedFrom="0" laneChangedTo="0"/>
        <edge id="-1278654480" sampledSeconds="0.00" departed="0" arrived="0" entered="0" left="0" laneChangedFrom="0" laneChangedTo="0"/>
        <edge id="-1278654481" sampledSeconds="0.00" departed="0" arrived="0" entered="0" left="0" laneChangedFrom="0" laneChangedTo="0"/>
        <edge id="-1278654482#0" sampledSeconds="0.00" departed="0" arrived="0" entered="0" left="0" laneChangedFrom="0" laneChangedTo="0"/>
        <edge id="-1278655004" sampledSeconds="27.76" traveltime="6.73" overlapTraveltime="7.67" density="0.72" overlapDensity="0.74" laneDensity="0.72" occupancy="0.31" waitingTime="0.00" timeLoss="2.90" speed="4.84" speedRelative="0.87" departed="0" arrived="4" entered="4" left="0" laneChangedFrom="0" laneChangedTo="0" flow="12.56"/>
        <edge id="-1278655005#0" sampledSeconds="0.00" departed="0" arrived="0" entered="0" left="0" laneChangedFrom="0" laneChangedTo="0"/>
        <edge id="-1278683562" sampledSeconds="0.00" departed="0" arrived="0" entered="0" left="0" laneChangedFrom="0" laneChangedTo="0"/>
        <edge id="-1278683566#0" sampledSeconds="0.00" departed="0" arrived="0" entered="0" left="0" laneChangedFrom="0" laneChangedTo="0"/>
        <edge id="-1278683566#1" sampledSeconds="0.00" departed="0" arrived="0" entered="0" left="0" laneChangedFrom="0" laneChangedTo="0"/>
        <edge id="-1278683567" sampledSeconds="0.00" departed="0" arrived="0" entered="0" left="0" laneChangedFrom="0" laneChangedTo="0"/>
        <edge id="-1278761801#0" sampledSeconds="0.00" departed="0" arrived="0" entered="0" left="0" laneChangedFrom="0" laneChangedTo="0"/>
        <edge id="-1278949916" sampledSeconds="0.00" departed="0" arrived="0" entered="0" left="0" laneChangedFrom="0" laneChangedTo="0"/>
        <edge id="-1278949917" sampledSeconds="0.00" departed="0" arrived="0" entered="0" left="0" laneChangedFrom="0" laneChangedTo="0"/>
        <edge id="-1278955670" sampledSeconds="0.00" departed="0" arrived="0" entered="0" left="0" laneChangedFrom="0" laneChangedTo="0"/>
        <edge id="-1278989514#0" sampledSeconds="0.00" departed="0" arrived="0" entered="0" left="0" laneChangedFrom="0" laneChangedTo="0"/>
        <edge id="-1278989515#0" sampledSeconds="0.00" departed="0" arrived="0" entered="0" left="0" laneChangedFrom="0" laneChangedTo="0"/>
        <edge id="-1278996298#0" sampledSeconds="0.00" departed="0" arrived="0" entered="0" left="0" laneChangedFrom="0" laneChangedTo="0"/>
        <edge id="-1278996298#1" sampledSeconds="0.00" departed="0" arrived="0" entered="0" left="0" laneChangedFrom="0" laneChangedTo="0"/>
        <edge id="-1278996299#0" sampledSeconds="0.00" departed="0" arrived="0" entered="0" left="0" laneChangedFrom="0" laneChangedTo="0"/>
        <edge id="-1278996299#1" sampledSeconds="0.00" departed="0" arrived="0" entered="0" left="0" laneChangedFrom="0" laneChangedTo="0"/>
        <edge id="-1278997728" sampledSeconds="0.00" departed="0" arrived="0" entered="0" left="0" laneChangedFrom="0" laneChangedTo="0"/>
        <edge id="-1278997729" sampledSeconds="0.00" departed="0" arrived="0" entered="0" left="0" laneChangedFrom="0" laneChangedTo="0"/>
        <edge id="-1278997730" sampledSeconds="0.00" departed="0" arrived="0" entered="0" left="0" laneChangedFrom="0" laneChangedTo="0"/>
        <edge id="-1279260094" sampledSeconds="0.00" departed="0" arrived="0" entered="0" left="0" laneChangedFrom="0" laneChangedTo="0"/>
        <edge id="-1279317683#0" sampledSeconds="0.00" departed="0" arrived="0" entered="0" left="0" laneChangedFrom="0" laneChangedTo="0"/>
        <edge id="-1279317683#1" sampledSeconds="0.00" departed="0" arrived="0" entered="0" left="0" laneChangedFrom="0" laneChangedTo="0"/>
        <edge id="-1279317684#0" sampledSeconds="0.00" departed="0" arrived="0" entered="0" left="0" laneChangedFrom="0" laneChangedTo="0"/>
        <edge id="-1279317684#1" sampledSeconds="0.00" departed="0" arrived="0" entered="0" left="0" laneChangedFrom="0" laneChangedTo="0"/>
        <edge id="-1279317685#0" sampledSeconds="0.00" departed="0" arrived="0" entered="0" left="0" laneChangedFrom="0" laneChangedTo="0"/>
        <edge id="-1279317685#1" sampledSeconds="0.00" departed="0" arrived="0" entered="0" left="0" laneChangedFrom="0" laneChangedTo="0"/>
        <edge id="-1279681436#0" sampledSeconds="0.00" departed="0" arrived="0" entered="0" left="0" laneChangedFrom="0" laneChangedTo="0"/>
        <edge id="-1279681437#0" sampledSeconds="0.00" departed="0" arrived="0" entered="0" left="0" laneChangedFrom="0" laneChangedTo="0"/>
        <edge id="-1279681438" sampledSeconds="0.00" departed="0" arrived="0" entered="0" left="0" laneChangedFrom="0" laneChangedTo="0"/>
        <edge id="-1279810235#0" sampledSeconds="0.00" departed="0" arrived="0" entered="0" left="0" laneChangedFrom="0" laneChangedTo="0"/>
        <edge id="-1279810236#0" sampledSeconds="0.00" departed="0" arrived="0" entered="0" left="0" laneChangedFrom="0" laneChangedTo="0"/>
        <edge id="-1279810237#0" sampledSeconds="0.00" departed="0" arrived="0" entered="0" left="0" laneChangedFrom="0" laneChangedTo="0"/>
        <edge id="-1279810242#0" sampledSeconds="0.00" departed="0" arrived="0" entered="0" left="0" laneChangedFrom="0" laneChangedTo="0"/>
        <edge id="-1279814597#0" sampledSeconds="0.00" departed="0" arrived="0" entered="0" left="0" laneChangedFrom="0" laneChangedTo="0"/>
        <edge id="-1279814598#1" sampledSeconds="0.00" departed="0" arrived="0" entered="0" left="0" laneChangedFrom="0" laneChangedTo="0"/>
        <edge id="-1279816417" sampledSeconds="301.04" traveltime="11.15" overlapTraveltime="11.58" density="3.79" overlapDensity="3.93" laneDensity="1.89" occupancy="0.85" waitingTime="152.00" timeLoss="231.90" speed="6.16" speedRelative="0.22" departed="0" arrived="0" entered="26" left="26" laneChangedFrom="4" laneChangedTo="4" flow="83.97"/>
        <edge id="-1280058649#0" sampledSeconds="0.00" departed="0" arrived="0" entered="0" left="0" laneChangedFrom="0" laneChangedTo="0"/>
        <edge id="-1280060617#1" sampledSeconds="0.00" departed="0" arrived="0" entered="0" left="0" laneChangedFrom="0" laneChangedTo="0"/>
        <edge id="-1280060618" sampledSeconds="0.00" departed="0" arrived="0" entered="0" left="0" laneChangedFrom="0" laneChangedTo="0"/>
        <edge id="-1280073311" sampledSeconds="0.00" departed="0" arrived="0" entered="0" left="0" laneChangedFrom="0" laneChangedTo="0"/>
        <edge id="-1280079384" sampledSeconds="0.00" departed="0" arrived="0" entered="0" left="0" laneChangedFrom="0" laneChangedTo="0"/>
        <edge id="-1280079385#0" sampledSeconds="0.00" departed="0" arrived="0" entered="0" left="0" laneChangedFrom="0" laneChangedTo="0"/>
        <edge id="-1280079388#1" sampledSeconds="150.71" traveltime="12.88" overlapTraveltime="13.70" density="5.71" overlapDensity="6.07" laneDensity="2.86" occupancy="1.31" waitingTime="110.00" timeLoss="128.63" speed="1.91" speedRelative="0.14" departed="0" arrived="0" entered="11" left="11" laneChangedFrom="2" laneChangedTo="2" flow="39.24"/>
        <edge id="-1280084164" sampledSeconds="0.00" departed="0" arrived="0" entered="0" left="0" laneChangedFrom="0" laneChangedTo="0"/>
        <edge id="-1280084165#0" sampledSeconds="0.00" departed="0" arrived="0" entered="0" left="0" laneChangedFrom="0" laneChangedTo="0"/>
        <edge id="-1280084165#1" sampledSeconds="0.00" departed="0" arrived="0" entered="0" left="0" laneChangedFrom="0" laneChangedTo="0"/>
        <edge id="-1280084168#0" sampledSeconds="0.00" departed="0" arrived="0" entered="0" left="0" laneChangedFrom="0" laneChangedTo="0"/>
        <edge id="-1280084173#0" sampledSeconds="0.00" departed="0" arrived="0" entered="0" left="0" laneChangedFrom="0" laneChangedTo="0"/>
        <edge id="-1280084174#1" sampledSeconds="0.00" departed="0" arrived="0" entered="0" left="0" laneChangedFrom="0" laneChangedTo="0"/>
        <edge id="-1280086013" sampledSeconds="9.95" traveltime="2.37" overlapTraveltime="3.32" density="0.31" overlapDensity="0.44" laneDensity="0.31" occupancy="0.15" waitingTime="0.00" timeLoss="5.00" speed="7.31" speedRelative="0.53" departed="0" arrived="0" entered="3" left="3" laneChangedFrom="0" laneChangedTo="0" flow="8.27"/>
        <edge id="-1280747866" sampledSeconds="0.00" departed="0" arrived="0" entered="0" left="0" laneChangedFrom="0" laneChangedTo="0"/>