<?xml version="1.0" encoding="UTF-8"?>

<!-- generated on 2026-01-12T14:32:36.906153+08:00 by Eclipse SUMO GUI 1.25.0
<sumoConfiguration xmlns:xsi="http://www.w3.org/2001/XMLSchema-instance" xsi:noNamespaceSchemaLocation="http://sumo.dlr.de/xsd/sumoConfiguration.xsd">

    <input>
        <net-file value="osm.net.xml.gz"/>
        <route-files value="trips.xml"/>
        <additional-files value="osm.poly.xml.gz,output.add.xml"/>
    </input>

    <output>
        <summary-output value="data_selfish_summary.xml"/>
        <tripinfo-output value="data_selfish_tripinfo.xml"/>
        <statistic-output value="data_selfish_stats.xml"/>
    </output>

    <processing>
        <ignore-route-errors value="true"/>
        <time-to-teleport value="-1"/>
        <tls.actuated.jam-threshold value="30"/>
    </processing>

    <routing>
        <device.rerouting.adaptation-steps value="18"/>
        <device.rerouting.adaptation-interval value="10"/>
    </routing>

    <report>
        <verbose value="true"/>
        <duration-log.statistics value="true"/>
        <no-step-log value="true"/>
    </report>

    <gui_only>
        <gui-settings-file value="osm.view.xml"/>
    </gui_only>

</sumoConfiguration>
-->

<meandata xmlns:xsi="http://www.w3.org/2001/XMLSchema-instance" xsi:noNamespaceSchemaLocation="http://sumo.dlr.de/xsd/meandata_file.xsd">
    <interval begin="0.00" end="3600.00" id="wizard_example">
        <edge id="-1008051258#0" sampledSeconds="64.54" traveltime="3.55" overlapTraveltime="4.03" density="0.37" overlapDensity="0.42" laneDensity="0.37" occupancy="0.19" waitingTime="0.00" timeLoss="6.43" speed="11.78" speedRelative="0.85" departed="0" arrived="1" entered="16" left="15" laneChangedFrom="0" laneChangedTo="0" flow="15.75"/>
        <edge id="-1008051258#1" sampledSeconds="53.56" traveltime="2.20" overlapTraveltime="2.82" density="0.51" overlapDensity="0.65" laneDensity="0.51" occupancy="0.26" waitingTime="0.00" timeLoss="10.59" speed="9.89" speedRelative="0.71" departed="0" arrived="1" entered="19" left="18" laneChangedFrom="0" laneChangedTo="0" flow="18.05"/>
        <edge id="-1008051258#2" sampledSeconds="92.39" traveltime="2.95" overlapTraveltime="3.72" density="0.86" overlapDensity="1.09" laneDensity="0.86" occupancy="0.46" waitingTime="0.00" timeLoss="37.12" speed="7.66" speedRelative="0.55" departed="1" arrived="2" entered="24" left="23" laneChangedFrom="0" laneChangedTo="0" flow="23.83"/>
        <edge id="-1008051258#3" sampledSeconds="90.00" traveltime="2.53" overlapTraveltime="3.21" density="0.95" overlapDensity="1.21" laneDensity="0.95" occupancy="0.50" waitingTime="0.00" timeLoss="35.49" speed="7.97" speedRelative="0.57" departed="0" arrived="0" entered="28" left="28" laneChangedFrom="0" laneChangedTo="0" flow="27.38"/>
        <edge id="-1008051258#4" sampledSeconds="97.56" traveltime="2.71" overlapTraveltime="3.16" density="0.93" overlapDensity="1.08" laneDensity="0.93" occupancy="0.44" waitingTime="0.00" timeLoss="28.13" speed="9.55" speedRelative="0.69" departed="0" arrived="1" entered="31" left="30" laneChangedFrom="0" laneChangedTo="0" flow="31.85"/>
        <edge id="-1008051258#5" sampledSeconds="2.88" traveltime="2.92" overlapTraveltime="3.43" density="0.02" overlapDensity="0.03" laneDensity="0.02" occupancy="0.01" waitingTime="0.00" timeLoss="1.18" speed="9.34" speedRelative="0.67" departed="1" arrived="0" entered="0" left="1" laneChangedFrom="0" laneChangedTo="0" flow="0.82"/>
        <edge id="-101376482" sampledSeconds="0.00" departed="0" arrived="0" entered="0" left="0" laneChangedFrom="0" laneChangedTo="0"/>
        <edge id="-101376495#1" sampledSeconds="0.00" departed="0" arrived="0" entered="0" left="0" laneChangedFrom="0" laneChangedTo="0"/>
        <edge id="-101470402#0" sampledSeconds="0.00" departed="0" arrived="0" entered="0" left="0" laneChangedFrom="0" laneChangedTo="0"/>
        <edge id="-101470402#1" sampledSeconds="0.00" departed="0" arrived="0" entered="0" left="0" laneChangedFrom="0" laneChangedTo="0"/>
        <edge id="-101476579" sampledSeconds="167.26" traveltime="4.78" overlapTraveltime="5.58" density="1.11" overlapDensity="1.30" laneDensity="0.56" occupancy="0.28" waitingTime="0.00" timeLoss="24.85" speed="7.31" speedRelative="0.88" departed="0" arrived="1" entered="30" left="29" laneChangedFrom="0" laneChangedTo="0" flow="29.30"/>
        <edge id="-101476581" sampledSeconds="0.00" departed="0" arrived="0" entered="0" left="0" laneChangedFrom="0" laneChangedTo="0"/>
        <edge id="-1022486131#1" sampledSeconds="0.00" departed="0" arrived="0" entered="0" left="0" laneChangedFrom="0" laneChangedTo="0"/>
        <edge id="-1026300613" sampledSeconds="0.00" departed="0" arrived="0" entered="0" left="0" laneChangedFrom="0" laneChangedTo="0"/>
        <edge id="-1042494593#0" sampledSeconds="0.00" departed="0" arrived="0" entered="0" left="0" laneChangedFrom="0" laneChangedTo="0"/>
        <edge id="-104357790#0" sampledSeconds="0.00" departed="0" arrived="0" entered="0" left="0" laneChangedFrom="0" laneChangedTo="0"/>
        <edge id="-104357790#1" sampledSeconds="0.00" departed="0" arrived="0" entered="0" left="0" laneChangedFrom="0" laneChangedTo="0"/>
        <edge id="-1064374314#0" sampledSeconds="3.50" traveltime="3.11" overlapTraveltime="3.50" density="0.02" overlapDensity="0.02" laneDensity="0.02" occupancy="0.01" waitingTime="0.00" timeLoss="0.11" speed="13.04" speedRelative="0.94" departed="0" arrived="0" entered="1" left="1" laneChangedFrom="0" laneChangedTo="0" flow="1.00"/>
        <edge id="-1064374314#1" sampledSeconds="2.97" traveltime="2.98" overlapTraveltime="3.37" density="0.02" overlapDensity="0.02" laneDensity="0.02" occupancy="0.01" waitingTime="0.00" timeLoss="0.14" speed="12.86" speedRelative="0.93" departed="1" arrived="0" entered="0" left="1" laneChangedFrom="0" laneChangedTo="0" flow="0.87"/>
        <edge id="-1064386463" sampledSeconds="0.00" departed="0" arrived="0" entered="0" left="0" laneChangedFrom="0" laneChangedTo="0"/>
        <edge id="-1064386464" sampledSeconds="4.18" traveltime="3.82" overlapTraveltime="4.18" density="0.03" overlapDensity="0.03" laneDensity="0.03" occupancy="0.01" waitingTime="0.00" timeLoss="0.93" speed="11.09" speedRelative="0.80" departed="0" arrived="1" entered="1" left="0" laneChangedFrom="0" laneChangedTo="0" flow="1.02"/>
        <edge id="-1065726171#0" sampledSeconds="82.27" traveltime="3.81" overlapTraveltime="4.57" density="0.65" overlapDensity="0.79" laneDensity="0.65" occupancy="0.33" waitingTime="0.00" timeLoss="8.89" speed="7.46" speedRelative="0.90" departed="0" arrived="0" entered="18" left="18" laneChangedFrom="0" laneChangedTo="0" flow="17.57"/>
        <edge id="-1065726171#1" sampledSeconds="756.08" traveltime="4.90" overlapTraveltime="5.74" density="5.17" overlapDensity="6.05" laneDensity="5.17" occupancy="2.63" waitingTime="3.00" timeLoss="150.88" speed="6.91" speedRelative="0.83" departed="0" arrived="0" entered="132" left="131" laneChangedFrom="0" laneChangedTo="0" flow="128.61"/>
        <edge id="-1065726174" sampledSeconds="31.61" traveltime="5.96" overlapTraveltime="6.35" density="0.13" overlapDensity="0.14" laneDensity="0.13" occupancy="0.06" waitingTime="0.00" timeLoss="6.91" speed="10.81" speedRelative="0.78" departed="0" arrived="5" entered="5" left="0" laneChangedFrom="0" laneChangedTo="0" flow="5.06"/>
        <edge id="-1071486787" sampledSeconds="0.00" departed="0" arrived="0" entered="0" left="0" laneChangedFrom="0" laneChangedTo="0"/>
        <edge id="-1071486788" sampledSeconds="0.00" departed="0" arrived="0" entered="0" left="0" laneChangedFrom="0" laneChangedTo="0"/>
        <edge id="-1071486789" sampledSeconds="0.00" departed="0" arrived="0" entered="0" left="0" laneChangedFrom="0" laneChangedTo="0"/>
        <edge id="-1071787530" sampledSeconds="16.55" traveltime="5.26" overlapTraveltime="5.65" density="0.08" overlapDensity="0.08" laneDensity="0.08" occupancy="0.04" waitingTime="0.00" timeLoss="3.25" speed="11.18" speedRelative="0.80" departed="0" arrived="3" entered="3" left="0" laneChangedFrom="0" laneChangedTo="0" flow="3.03"/>
        <edge id="-1072138522" sampledSeconds="27.53" traveltime="5.21" overlapTraveltime="5.62" density="0.13" overlapDensity="0.14" laneDensity="0.13" occupancy="0.06" waitingTime="0.00" timeLoss="4.96" speed="10.71" speedRelative="0.77" departed="0" arrived="5" entered="5" left="0" laneChangedFrom="0" laneChangedTo="0" flow="5.06"/>
        <edge id="-1072143217" sampledSeconds="3.26" traveltime="3.07" overlapTraveltime="3.81" density="0.02" overlapDensity="0.03" laneDensity="0.02" occupancy="0.01" waitingTime="0.00" timeLoss="0.74" speed="9.15" speedRelative="0.66" departed="1" arrived="0" entered="0" left="1" laneChangedFrom="0" laneChangedTo="0" flow="0.78"/>
        <edge id="-1072149528#0" sampledSeconds="0.00" departed="0" arrived="0" entered="0" left="0" laneChangedFrom="0" laneChangedTo="0"/>
        <edge id="-1072149528#1" sampledSeconds="0.00" departed="0" arrived="0" entered="0" left="0" laneChangedFrom="0" laneChangedTo="0"/>
        <edge id="-1072149529#0" sampledSeconds="0.00" departed="0" arrived="0" entered="0" left="0" laneChangedFrom="0" laneChangedTo="0"/>
        <edge id="-1072149529#1" sampledSeconds="0.00" departed="0" arrived="0" entered="0" left="0" laneChangedFrom="0" laneChangedTo="0"/>
        <edge id="-1072155402#0" sampledSeconds="0.00" departed="0" arrived="0" entered="0" left="0" laneChangedFrom="0" laneChangedTo="0"/>
        <edge id="-1072155402#1" sampledSeconds="0.00" departed="0" arrived="0" entered="0" left="0" laneChangedFrom="0" laneChangedTo="0"/>
        <edge id="-1072176585" sampledSeconds="8.70" traveltime="2.72" overlapTraveltime="3.21" density="0.09" overlapDensity="0.10" laneDensity="0.09" occupancy="0.04" waitingTime="0.00" timeLoss="2.74" speed="9.33" speedRelative="0.67" departed="0" arrived="3" entered="3" left="0" laneChangedFrom="0" laneChangedTo="0" flow="3.05"/>
        <edge id="-1072192654" sampledSeconds="9.96" traveltime="2.57" overlapTraveltime="3.32" density="0.11" overlapDensity="0.15" laneDensity="0.11" occupancy="0.06" waitingTime="0.00" timeLoss="3.86" speed="7.21" speedRelative="0.52" departed="0" arrived="0" entered="3" left="3" laneChangedFrom="0" laneChangedTo="0" flow="2.93"/>
        <edge id="-1072192655" sampledSeconds="0.00" departed="0" arrived="0" entered="0" left="0" laneChangedFrom="0" laneChangedTo="0"/>
        <edge id="-1072192656" sampledSeconds="4.15" traveltime="3.96" overlapTraveltime="4.93" density="0.03" overlapDensity="0.04" laneDensity="0.03" occupancy="0.02" waitingTime="0.00" timeLoss="2.28" speed="6.54" speedRelative="0.47" departed="1" arrived="0" entered="0" left="1" laneChangedFrom="0" laneChangedTo="0" flow="0.77"/>
        <edge id="-1072192658" sampledSeconds="0.00" departed="0" arrived="0" entered="0" left="0" laneChangedFrom="0" laneChangedTo="0"/>
        <edge id="-1072192659#0" sampledSeconds="8.82" traveltime="2.67" overlapTraveltime="3.14" density="0.10" overlapDensity="0.12" laneDensity="0.10" occupancy="0.05" waitingTime="0.00" timeLoss="3.23" speed="8.32" speedRelative="0.60" departed="1" arrived="0" entered="2" left="3" laneChangedFrom="0" laneChangedTo="0" flow="2.90"/>
        <edge id="-1072513714" sampledSeconds="0.00" departed="0" arrived="0" entered="0" left="0" laneChangedFrom="0" laneChangedTo="0"/>
        <edge id="-1072977677" sampledSeconds="0.00" departed="0" arrived="0" entered="0" left="0" laneChangedFrom="0" laneChangedTo="0"/>
        <edge id="-1072992795" sampledSeconds="6.10" traveltime="6.34" overlapTraveltime="7.07" density="0.05" overlapDensity="0.05" laneDensity="0.05" occupancy="0.02" waitingTime="0.00" timeLoss="3.32" speed="5.29" speedRelative="0.38" departed="1" arrived="0" entered="0" left="1" laneChangedFrom="0" laneChangedTo="0" flow="0.87"/>
        <edge id="-1074375997" sampledSeconds="0.00" departed="0" arrived="0" entered="0" left="0" laneChangedFrom="0" laneChangedTo="0"/>
        <edge id="-1077777151" sampledSeconds="0.00" departed="0" arrived="0" entered="0" left="0" laneChangedFrom="0" laneChangedTo="0"/>
        <edge id="-1077777153" sampledSeconds="0.00" departed="0" arrived="0" entered="0" left="0" laneChangedFrom="0" laneChangedTo="0"/>
        <edge id="-1077777154" sampledSeconds="0.00" departed="0" arrived="0" entered="0" left="0" laneChangedFrom="0" laneChangedTo="0"/>
        <edge id="-1077777156" sampledSeconds="0.00" departed="0" arrived="0" entered="0" left="0" laneChangedFrom="0" laneChangedTo="0"/>
        <edge id="-1077793341#0" sampledSeconds="0.00" departed="0" arrived="0" entered="0" left="0" laneChangedFrom="0" laneChangedTo="0"/>
        <edge id="-1077807236" sampledSeconds="0.00" departed="0" arrived="0" entered="0" left="0" laneChangedFrom="0" laneChangedTo="0"/>
        <edge id="-1087197498" sampledSeconds="0.00" departed="0" arrived="0" entered="0" left="0" laneChangedFrom="0" laneChangedTo="0"/>
        <edge id="-1088170204" sampledSeconds="0.00" departed="0" arrived="0" entered="0" left="0" laneChangedFrom="0" laneChangedTo="0"/>
        <edge id="-1092255860" sampledSeconds="845.75" traveltime="14.06" overlapTraveltime="15.12" density="3.31" overlapDensity="3.56" laneDensity="3.31" occupancy="1.66" waitingTime="0.00" timeLoss="112.01" speed="4.69" speedRelative="0.84" departed="1" arrived="0" entered="55" left="56" laneChangedFrom="0" laneChangedTo="0" flow="55.93"/>
        <edge id="-1120242622" sampledSeconds="0.00" departed="0" arrived="0" entered="0" left="0" laneChangedFrom="0" laneChangedTo="0"/>
        <edge id="-1135617969" sampledSeconds="0.00" departed="0" arrived="0" entered="0" left="0" laneChangedFrom="0" laneChangedTo="0"/>
        <edge id="-1149864133" sampledSeconds="0.00" departed="0" arrived="0" entered="0" left="0" laneChangedFrom="0" laneChangedTo="0"/>
        <edge id="-1154155306#1" sampledSeconds="0.00" departed="0" arrived="0" entered="0" left="0" laneChangedFrom="0" laneChangedTo="0"/>
        <edge id="-1154155307#1" sampledSeconds="0.00" departed="0" arrived="0" entered="0" left="0" laneChangedFrom="0" laneChangedTo="0"/>
        <edge id="-1156000158" sampledSeconds="0.00" departed="0" arrived="0" entered="0" left="0" laneChangedFrom="0" laneChangedTo="0"/>
        <edge id="-1170881169#0" sampledSeconds="0.00" departed="0" arrived="0" entered="0" left="0" laneChangedFrom="0" laneChangedTo="0"/>
        <edge id="-1170881169#1" sampledSeconds="0.00" departed="0" arrived="0" entered="0" left="0" laneChangedFrom="0" laneChangedTo="0"/>
        <edge id="-117159637" sampledSeconds="0.00" departed="0" arrived="0" entered="0" left="0" laneChangedFrom="0" laneChangedTo="0"/>
        <edge id="-1212504575" sampledSeconds="30.69" traveltime="1.82" overlapTraveltime="2.22" density="0.33" overlapDensity="0.40" laneDensity="0.16" occupancy="0.08" waitingTime="0.00" timeLoss="3.85" speed="11.89" speedRelative="0.86" departed="1" arrived="0" entered="13" left="14" laneChangedFrom="0" laneChangedTo="0" flow="13.93"/>
        <edge id="-1212506817#1" sampledSeconds="434.98" traveltime="2.02" overlapTraveltime="2.38" density="2.56" overlapDensity="3.01" laneDensity="1.28" occupancy="0.66" waitingTime="0.00" timeLoss="108.56" speed="19.00" speedRelative="0.68" departed="0" arrived="0" entered="183" left="183" laneChangedFrom="0" laneChangedTo="0" flow="174.97"/>
        <edge id="-1214459846" sampledSeconds="98.00" traveltime="6.18" overlapTraveltime="6.56" density="0.36" overlapDensity="0.38" laneDensity="0.36" occupancy="0.18" waitingTime="0.00" timeLoss="13.27" speed="11.72" speedRelative="0.84" departed="1" arrived="0" entered="14" left="15" laneChangedFrom="0" laneChangedTo="0" flow="15.03"/>
        <edge id="-1234167259" sampledSeconds="0.00" departed="0" arrived="0" entered="0" left="0" laneChangedFrom="0" laneChangedTo="0"/>
        <edge id="-1234167260#0" sampledSeconds="0.00" departed="0" arrived="0" entered="0" left="0" laneChangedFrom="0" laneChangedTo="0"/>
        <edge id="-1234167260#1" sampledSeconds="0.00" departed="0" arrived="0" entered="0" left="0" laneChangedFrom="0" laneChangedTo="0"/>
        <edge id="-1234167261#0" sampledSeconds="0.00" departed="0" arrived="0" entered="0" left="0" laneChangedFrom="0" laneChangedTo="0"/>
        <edge id="-1234167261#1" sampledSeconds="0.00" departed="0" arrived="0" entered="0" left="0" laneChangedFrom="0" laneChangedTo="0"/>
        <edge id="-1234167261#2" sampledSeconds="0.00" departed="0" arrived="0" entered="0" left="0" laneChangedFrom="0" laneChangedTo="0"/>
        <edge id="-1234167261#3" sampledSeconds="0.00" departed="0" arrived="0" entered="0" left="0" laneChangedFrom="0" laneChangedTo="0"/>
        <edge id="-1234167262#0" sampledSeconds="0.00" departed="0" arrived="0" entered="0" left="0" laneChangedFrom="0" laneChangedTo="0"/>
        <edge id="-1234167262#1" sampledSeconds="0.00" departed="0" arrived="0" entered="0" left="0" laneChangedFrom="0" laneChangedTo="0"/>
        <edge id="-1234167263" sampledSeconds="0.00" departed="0" arrived="0" entered="0" left="0" laneChangedFrom="0" laneChangedTo="0"/>
        <edge id="-1234167264#0" sampledSeconds="0.00" departed="0" arrived="0" entered="0" left="0" laneChangedFrom="0" laneChangedTo="0"/>
        <edge id="-1234167264#1" sampledSeconds="0.00" departed="0" arrived="0" entered="0" left="0" laneChangedFrom="0" laneChangedTo="0"/>
        <edge id="-1234167265#0" sampledSeconds="0.00" departed="0" arrived="0" entered="0" left="0" laneChangedFrom="0" laneChangedTo="0"/>
        <edge id="-1234167265#1" sampledSeconds="0.00" departed="0" arrived="0" entered="0" left="0" laneChangedFrom="0" laneChangedTo="0"/>
        <edge id="-1234167266" sampledSeconds="0.00" departed="0" arrived="0" entered="0" left="0" laneChangedFrom="0" laneChangedTo="0"/>
        <edge id="-1234167267" sampledSeconds="0.00" departed="0" arrived="0" entered="0" left="0" laneChangedFrom="0" laneChangedTo="0"/>
        <edge id="-1234167268" sampledSeconds="0.00" departed="0" arrived="0" entered="0" left="0" laneChangedFrom="0" laneChangedTo="0"/>
        <edge id="-1234167270" sampledSeconds="0.00" departed="0" arrived="0" entered="0" left="0" laneChangedFrom="0" laneChangedTo="0"/>
        <edge id="-1236777595" sampledSeconds="0.00" departed="0" arrived="0" entered="0" left="0" laneChangedFrom="0" laneChangedTo="0"/>
        <edge id="-1237132882" sampledSeconds="0.00" departed="0" arrived="0" entered="0" left="0" laneChangedFrom="0" laneChangedTo="0"/>
        <edge id="-1272650816" sampledSeconds="0.00" departed="0" arrived="0" entered="0" left="0" laneChangedFrom="0" laneChangedTo="0"/>
        <edge id="-1272650818" sampledSeconds="18.18" traveltime="5.18" overlapTraveltime="6.06" density="0.10" overlapDensity="0.12" laneDensity="0.10" occupancy="0.05" waitingTime="0.00" timeLoss="6.42" speed="8.02" speedRelative="0.58" departed="0" arrived="0" entered="3" left="3" laneChangedFrom="0" laneChangedTo="0" flow="2.86"/>
        <edge id="-1274179998#0" sampledSeconds="126.20" traveltime="2.50" overlapTraveltime="3.19" density="1.48" overlapDensity="1.90" laneDensity="1.48" occupancy="0.73" waitingTime="0.00" timeLoss="46.35" speed="7.36" speedRelative="0.53" departed="2" arrived="0" entered="38" left="40" laneChangedFrom="0" laneChangedTo="0" flow="39.32"/>
        <edge id="-1275244963" sampledSeconds="4.07" traveltime="1.47" overlapTraveltime="2.04" density="0.08" overlapDensity="0.11" laneDensity="0.08" occupancy="0.04" waitingTime="0.00" timeLoss="1.84" speed="7.68" speedRelative="0.55" departed="0" arrived="1" entered="2" left="1" laneChangedFrom="0" laneChangedTo="0" flow="2.12"/>
        <edge id="-1278082741#0" sampledSeconds="0.00" departed="0" arrived="0" entered="0" left="0" laneChangedFrom="0" laneChangedTo="0"/>
        <edge id="-1278089780" sampledSeconds="0.00" departed="0" arrived="0" entered="0" left="0" laneChangedFrom="0" laneChangedTo="0"/>
        <edge id="-1278144668" sampledSeconds="0.00" departed="0" arrived="0" entered="0" left="0" laneChangedFrom="0" laneChangedTo="0"/>
        <edge id="-1278153203#0" sampledSeconds="0.00" departed="0" arrived="0" entered="0" left="0" laneChangedFrom="0" laneChangedTo="0"/>
        <edge id="-1278153203#1" sampledSeconds="0.00" departed="0" arrived="0" entered="0" left="0" laneChangedFrom="0" laneChangedTo="0"/>
        <edge id="-1278169411" sampledSeconds="0.00" departed="0" arrived="0" entered="0" left="0" laneChangedFrom="0" laneChangedTo="0"/>
        <edge id="-1278348712" sampledSeconds="0.00" departed="0" arrived="0" entered="0" left="0" laneChangedFrom="0" laneChangedTo="0"/>
        <edge id="-1278350843" sampledSeconds="0.00" departed="0" arrived="0" entered="0" left="0" laneChangedFrom="0" laneChangedTo="0"/>
        <edge id="-1278350844" sampledSeconds="0.00" departed="0" arrived="0" entered="0" left="0" laneChangedFrom="0" laneChangedTo="0"/>
        <edge id="-1278357471#1" sampledSeconds="0.00" departed="0" arrived="0" entered="0" left="0" laneChangedFrom="0" laneChangedTo="0"/>
        <edge id="-1278358006" sampledSeconds="0.00" departed="0" arrived="0" entered="0" left="0" laneChangedFrom="0" laneChangedTo="0"/>
        <edge id="-1278364486" sampledSeconds="0.00" departed="0" arrived="0" entered="0" left="0" laneChangedFrom="0" laneChangedTo="0"/>
        <edge id="-1278367502" sampledSeconds="0.00" departed="0" arrived="0" entered="0" left="0" laneChangedFrom="0" laneChangedTo="0"/>
        <edge id="-1278367504#0" sampledSeconds="0.00" departed="0" arrived="0" entered="0" left="0" laneChangedFrom="0" laneChangedTo="0"/>
        <edge id="-1278370290#1" sampledSeconds="0.00" departed="0" arrived="0" entered="0" left="0" laneChangedFrom="0" laneChangedTo="0"/>
        <edge id="-1278370872" sampledSeconds="0.00" departed="0" arrived="0" entered="0" left="0" laneChangedFrom="0" laneChangedTo="0"/>
        <edge id="-1278654471" sampledSeconds="0.00" departed="0" arrived="0" entered="0" left="0" laneChangedFrom="0" laneChangedTo="0"/>
        <edge id="-1278654478" sampledSeconds="0.00" departed="0" arrived="0" entered="0" left="0" laneChangedFrom="0" laneChangedTo="0"/>
        <edge id="-1278654480" sampledSeconds="0.00" departed="0" arrived="0" entered="0" left="0" laneChangedFrom="0" laneChangedTo="0"/>
        <edge id="-1278654481" sampledSeconds="0.00" departed="0" arrived="0" entered="0" left="0" laneChangedFrom="0" laneChangedTo="0"/>
        <edge id="-1278654482#0" sampledSeconds="0.00" departed="0" arrived="0" entered="0" left="0" laneChangedFrom="0" laneChangedTo="0"/>
        <edge id="-1278655004" sampledSeconds="0.00" departed="0" arrived="0" entered="0" left="0" laneChangedFrom="0" laneChangedTo="0"/>
        <edge id="-1278655005#0" sampledSeconds="0.00" departed="0" arrived="0" entered="0" left="0" laneChangedFrom="0" laneChangedTo="0"/>
        <edge id="-1278683562" sampledSeconds="0.00" departed="0" arrived="0" entered="0" left="0" laneChangedFrom="0" laneChangedTo="0"/>
        <edge id="-1278683566#0" sampledSeconds="0.00" departed="0" arrived="0" entered="0" left="0" laneChangedFrom="0" laneChangedTo="0"/>
        <edge id="-1278683566#1" sampledSeconds="0.00" departed="0" arrived="0" entered="0" left="0" laneChangedFrom="0" laneChangedTo="0"/>
        <edge id="-1278683567" sampledSeconds="0.00" departed="0" arrived="0" entered="0" left="0" laneChangedFrom="0" laneChangedTo="0"/>
        <edge id="-1278761801#0" sampledSeconds="0.00" departed="0" arrived="0" entered="0" left="0" laneChangedFrom="0" laneChangedTo="0"/>
        <edge id="-1278949916" sampledSeconds="0.00" departed="0" arrived="0" entered="0" left="0" laneChangedFrom="0" laneChangedTo="0"/>
        <edge id="-1278949917" sampledSeconds="0.00" departed="0" arrived="0" entered="0" left="0" laneChangedFrom="0" laneChangedTo="0"/>
        <edge id="-1278955670" sampledSeconds="0.00" departed="0" arrived="0" entered="0" left="0" laneChangedFrom="0" laneChangedTo="0"/>
        <edge id="-1278989514#0" sampledSeconds="0.00" departed="0" arrived="0" entered="0" left="0" laneChangedFrom="0" laneChangedTo="0"/>
        <edge id="-1278989515#0" sampledSeconds="0.00" departed="0" arrived="0" entered="0" left="0" laneChangedFrom="0" laneChangedTo="0"/>
        <edge id="-1278996298#0" sampledSeconds="0.00" departed="0" arrived="0" entered="0" left="0" laneChangedFrom="0" laneChangedTo="0"/>
        <edge id="-1278996298#1" sampledSeconds="0.00" departed="0" arrived="0" entered="0" left="0" laneChangedFrom="0" laneChangedTo="0"/>
        <edge id="-1278996299#0" sampledSeconds="0.00" departed="0" arrived="0" entered="0" left="0" laneChangedFrom="0" laneChangedTo="0"/>
        <edge id="-1278996299#1" sampledSeconds="0.00" departed="0" arrived="0" entered="0" left="0" laneChangedFrom="0" laneChangedTo="0"/>
        <edge id="-1278997728" sampledSeconds="0.00" departed="0" arrived="0" entered="0" left="0" laneChangedFrom="0" laneChangedTo="0"/>
        <edge id="-1278997729" sampledSeconds="0.00" departed="0" arrived="0" entered="0" left="0" laneChangedFrom="0" laneChangedTo="0"/>
        <edge id="-1278997730" sampledSeconds="0.00" departed="0" arrived="0" entered="0" left="0" laneChangedFrom="0" laneChangedTo="0"/>
        <edge id="-1279260094" sampledSeconds="0.00" departed="0" arrived="0" entered="0" left="0" laneChangedFrom="0" laneChangedTo="0"/>
        <edge id="-1279317683#0" sampledSeconds="0.00" departed="0" arrived="0" entered="0" left="0" laneChangedFrom="0" laneChangedTo="0"/>
        <edge id="-1279317683#1" sampledSeconds="0.00" departed="0" arrived="0" entered="0" left="0" laneChangedFrom="0" laneChangedTo="0"/>
        <edge id="-1279317684#0" sampledSeconds="0.00" departed="0" arrived="0" entered="0" left="0" laneChangedFrom="0" laneChangedTo="0"/>
        <edge id="-1279317684#1" sampledSeconds="0.00" departed="0" arrived="0" entered="0" left="0" laneChangedFrom="0" laneChangedTo="0"/>
        <edge id="-1279317685#0" sampledSeconds="0.00" departed="0" arrived="0" entered="0" left="0" laneChangedFrom="0" laneChangedTo="0"/>
        <edge id="-1279317685#1" sampledSeconds="0.00" departed="0" arrived="0" entered="0" left="0" laneChangedFrom="0" laneChangedTo="0"/>
        <edge id="-1279681436#0" sampledSeconds="10.21" traveltime="3.98" overlapTraveltime="5.63" density="0.09" overlapDensity="0.13" laneDensity="0.09" occupancy="0.05" waitingTime="0.00" timeLoss="5.63" speed="4.88" speedRelative="0.35" departed="1" arrived="0" entered="1" left="2" laneChangedFrom="0" laneChangedTo="0" flow="1.53"/>
        <edge id="-1279681437#0" sampledSeconds="0.00" departed="0" arrived="0" entered="0" left="0" laneChangedFrom="0" laneChangedTo="0"/>
        <edge id="-1279681438" sampledSeconds="0.00" departed="0" arrived="0" entered="0" left="0" laneChangedFrom="0" laneChangedTo="0"/>
        <edge id="-1279810235#0" sampledSeconds="0.00" departed="0" arrived="0" entered="0" left="0" laneChangedFrom="0" laneChangedTo="0"/>
        <edge id="-1279810236#0" sampledSeconds="0.00" departed="0" arrived="0" entered="0" left="0" laneChangedFrom="0" laneChangedTo="0"/>
        <edge id="-1279810237#0" sampledSeconds="0.00" departed="0" arrived="0" entered="0" left="0" laneChangedFrom="0" laneChangedTo="0"/>
        <edge id="-1279810242#0" sampledSeconds="0.00" departed="0" arrived="0" entered="0" left="0" laneChangedFrom="0" laneChangedTo="0"/>
        <edge id="-1279814597#0" sampledSeconds="0.00" departed="0" arrived="0" entered="0" left="0" laneChangedFrom="0" laneChangedTo="0"/>
        <edge id="-1279814598#1" sampledSeconds="0.00" departed="0" arrived="0" entered="0" left="0" laneChangedFrom="0" laneChangedTo="0"/>
        <edge id="-1279816417" sampledSeconds="1311.19" traveltime="8.14" overlapTraveltime="8.89" density="4.70" overlapDensity="5.12" laneDensity="2.35" occupancy="1.19" waitingTime="211.00" timeLoss="896.94" speed="8.56" speedRelative="0.31" departed="2" arrived="2" entered="146" left="145" laneChangedFrom="39" laneChangedTo="39" flow="144.73"/>
        <edge id="-1280058649#0" sampledSeconds="0.00" departed="0" arrived="0" entered="0" left="0" laneChangedFrom="0" laneChangedTo="0"/>
        <edge id="-1280060617#1" sampledSeconds="0.00" departed="0" arrived="0" entered="0" left="0" laneChangedFrom="0" laneChangedTo="0"/>
        <edge id="-1280060618" sampledSeconds="0.00" departed="0" arrived="0" entered="0" left="0" laneChangedFrom="0" laneChangedTo="0"/>
        <edge id="-1280073311" sampledSeconds="0.00" departed="0" arrived="0" entered="0" left="0" laneChangedFrom="0" laneChangedTo="0"/>
        <edge id="-1280079384" sampledSeconds="0.00" departed="0" arrived="0" entered="0" left="0" laneChangedFrom="0" laneChangedTo="0"/>
        <edge id="-1280079385#0" sampledSeconds="0.00" departed="0" arrived="0" entered="0" left="0" laneChangedFrom="0" laneChangedTo="0"/>
        <edge id="-1280079388#1" sampledSeconds="1293.87" traveltime="14.60" overlapTraveltime="16.15" density="12.81" overlapDensity="14.06" laneDensity="6.40" occupancy="3.34" waitingTime="796.00" timeLoss="1115.34" speed="1.89" speedRelative="0.14" departed="1" arrived="0" entered="80" left="80" laneChangedFrom="51" laneChangedTo="51" flow="87.26"/>
        <edge id="-1280084164" sampledSeconds="0.00" departed="0" arrived="0" entered="0" left="0" laneChangedFrom="0" laneChangedTo="0"/>
        <edge id="-1280084165#0" sampledSeconds="0.00" departed="0" arrived="0" entered="0" left="0" laneChangedFrom="0" laneChangedTo="0"/>
        <edge id="-1280084165#1" sampledSeconds="0.00" departed="0" arrived="0" entered="0" left="0" laneChangedFrom="0" laneChangedTo="0"/>
        <edge id="-1280084168#0" sampledSeconds="0.00" departed="0" arrived="0" entered="0" left="0" laneChangedFrom="0" laneChangedTo="0"/>