<?xml version="1.0" encoding="UTF-8"?>

<!-- generated on 2026-03-08T17:39:21.103762+08:00 by Eclipse SUMO GUI 1.25.0
<sumoConfiguration xmlns:xsi="http://www.w3.org/2001/XMLSchema-instance" xsi:noNamespaceSchemaLocation="http://sumo.dlr.de/xsd/sumoConfiguration.xsd">

    <input>
        <net-file value="c:\Users\otaku\Documents\Thesis\apriori_civiq\scenarios/bgc_full/final_map.net.xml"/>
        <route-files value="c:\Users\otaku\Documents\Thesis\apriori_civiq\scenarios/bgc_full/wardrop_routes_highEnough.rou.xml"/>
        <additional-files value="c:\Users\otaku\Documents\Thesis\apriori_civiq\scenarios/bgc_full/osm.poly.xml.gz,c:\Users\otaku\Documents\Thesis\apriori_civiq\scenarios/bgc_full/output.add.xml,c:\Users\otaku\Documents\Thesis\apriori_civiq\scenarios/bgc_full/vtypes.add.xml"/>
    </input>

    <output>
        <summary-output value="c:\Users\otaku\Documents\Thesis\apriori_civiq\scenarios/bgc_full/data\summary_highEnough.xml"/>
        <tripinfo-output value="c:\Users\otaku\Documents\Thesis\apriori_civiq\scenarios/bgc_full/data\tripinfo_highEnough.xml"/>
        <statistic-output value="c:\Users\otaku\Documents\Thesis\apriori_civiq\scenarios/bgc_full/data\stats_highEnough.xml"/>
    </output>

    <time>
        <step-length value="1.0"/>
    </time>

    <processing>
        <ignore-route-errors value="true"/>
        <time-to-teleport value="-1"/>
        <tls.actuated.jam-threshold value="30"/>
    </processing>

    <routing>
        <device.rerouting.adaptation-steps value="18"/>
        <device.rerouting.adaptation-interval value="10"/>
    </routing>

    <report>
        <verbose value="true"/>
        <duration-log.statistics value="true"/>
        <no-step-log value="true"/>
    </report>

    <emissions>
        <device.emissions.probability value="1.0"/>
    </emissions>

    <traci_server>
        <remote-port value="56423"/>
    </traci_server>

    <gui_only>
        <gui-settings-file value="c:\Users\otaku\Documents\Thesis\apriori_civiq\scenarios/bgc_full/osm.view.xml"/>
        <start value="true"/>
    </gui_only>

</sumoConfiguration>
-->

<meandata xmlns:xsi="http://www.w3.org/2001/XMLSchema-instance" xsi:noNamespaceSchemaLocation="http://sumo.dlr.de/xsd/meandata_file.xsd">
    <interval begin="0.00" end="3231.00" id="wizard_example">
        <edge id="-1008051258#0" sampledSeconds="209.81" traveltime="3.60" overlapTraveltime="4.18" density="1.32" overlapDensity="1.53" laneDensity="1.32" occupancy="0.67" waitingTime="0.00" timeLoss="32.65" speed="11.38" speedRelative="0.82" departed="1" arrived="3" entered="50" left="48" laneChangedFrom="0" laneChangedTo="0" flow="53.89"/>
        <edge id="-1008051258#1" sampledSeconds="140.78" traveltime="2.14" overlapTraveltime="2.67" density="1.54" overlapDensity="1.91" laneDensity="1.54" occupancy="0.77" waitingTime="0.00" timeLoss="28.03" speed="10.45" speedRelative="0.75" departed="0" arrived="5" entered="53" left="48" laneChangedFrom="0" laneChangedTo="0" flow="57.79"/>
        <edge id="-1008051258#2" sampledSeconds="193.18" traveltime="2.82" overlapTraveltime="3.49" density="2.06" overlapDensity="2.54" laneDensity="2.06" occupancy="1.06" waitingTime="0.00" timeLoss="77.43" speed="8.17" speedRelative="0.59" departed="0" arrived="3" entered="56" left="52" laneChangedFrom="0" laneChangedTo="0" flow="60.64"/>
        <edge id="-1008051258#3" sampledSeconds="225.25" traveltime="2.68" overlapTraveltime="3.43" density="2.64" overlapDensity="3.38" laneDensity="2.64" occupancy="1.39" waitingTime="2.00" timeLoss="95.62" speed="7.48" speedRelative="0.54" departed="1" arrived="1" entered="65" left="65" laneChangedFrom="0" laneChangedTo="0" flow="71.14"/>
        <edge id="-1008051258#4" sampledSeconds="184.38" traveltime="2.73" overlapTraveltime="3.16" density="1.96" overlapDensity="2.27" laneDensity="1.96" occupancy="0.93" waitingTime="0.00" timeLoss="54.66" speed="9.55" speedRelative="0.69" departed="2" arrived="1" entered="57" left="58" laneChangedFrom="0" laneChangedTo="0" flow="67.26"/>
        <edge id="-1008051258#5" sampledSeconds="0.00" departed="0" arrived="0" entered="0" left="0" laneChangedFrom="0" laneChangedTo="0"/>
        <edge id="-101376482" sampledSeconds="0.00" departed="0" arrived="0" entered="0" left="0" laneChangedFrom="0" laneChangedTo="0"/>
        <edge id="-101376495#1" sampledSeconds="0.00" departed="0" arrived="0" entered="0" left="0" laneChangedFrom="0" laneChangedTo="0"/>
        <edge id="-101476579" sampledSeconds="815.27" traveltime="4.99" overlapTraveltime="5.82" density="6.04" overlapDensity="7.05" laneDensity="3.02" occupancy="1.53" waitingTime="0.00" timeLoss="146.85" speed="7.00" speedRelative="0.84" departed="0" arrived="3" entered="140" left="137" laneChangedFrom="0" laneChangedTo="0" flow="152.30"/>
        <edge id="-101476581" sampledSeconds="1.38" traveltime="1.45" overlapTraveltime="2.50" density="0.02" overlapDensity="0.06" laneDensity="0.02" occupancy="0.02" waitingTime="0.00" timeLoss="0.44" speed="4.77" speedRelative="0.34" departed="1" arrived="0" entered="0" left="1" laneChangedFrom="0" laneChangedTo="0" flow="0.26"/>
        <edge id="-1022486131#1" sampledSeconds="0.00" departed="0" arrived="0" entered="0" left="0" laneChangedFrom="0" laneChangedTo="0"/>
        <edge id="-1042494593#0" sampledSeconds="0.00" departed="0" arrived="0" entered="0" left="0" laneChangedFrom="0" laneChangedTo="0"/>
        <edge id="-104357790#0" sampledSeconds="0.00" departed="0" arrived="0" entered="0" left="0" laneChangedFrom="0" laneChangedTo="0"/>
        <edge id="-104357790#1" sampledSeconds="0.00" departed="0" arrived="0" entered="0" left="0" laneChangedFrom="0" laneChangedTo="0"/>
        <edge id="-1064374314#0" sampledSeconds="3.21" traveltime="2.85" overlapTraveltime="3.21" density="0.02" overlapDensity="0.02" laneDensity="0.02" occupancy="0.01" waitingTime="0.00" timeLoss="0.15" speed="14.21" speedRelative="1.02" departed="0" arrived="1" entered="1" left="0" laneChangedFrom="0" laneChangedTo="0" flow="1.11"/>
        <edge id="-1064374314#1" sampledSeconds="4.86" traveltime="4.49" overlapTraveltime="4.86" density="0.04" overlapDensity="0.04" laneDensity="0.04" occupancy="0.02" waitingTime="0.00" timeLoss="1.95" speed="8.91" speedRelative="0.64" departed="0" arrived="0" entered="1" left="1" laneChangedFrom="0" laneChangedTo="0" flow="1.16"/>
        <edge id="-1064386463" sampledSeconds="18.79" traveltime="5.89" overlapTraveltime="6.26" density="0.08" overlapDensity="0.09" laneDensity="0.08" occupancy="0.04" waitingTime="0.00" timeLoss="3.03" speed="11.61" speedRelative="0.84" departed="0" arrived="1" entered="3" left="2" laneChangedFrom="0" laneChangedTo="0" flow="3.38"/>
        <edge id="-1064386464" sampledSeconds="18.40" traveltime="3.38" overlapTraveltime="3.78" density="0.13" overlapDensity="0.14" laneDensity="0.13" occupancy="0.06" waitingTime="0.00" timeLoss="1.70" speed="12.25" speedRelative="0.88" departed="0" arrived="5" entered="5" left="0" laneChangedFrom="0" laneChangedTo="0" flow="5.58"/>
        <edge id="-1065726171#0" sampledSeconds="1004.26" traveltime="4.09" overlapTraveltime="4.83" density="9.06" overlapDensity="10.69" laneDensity="9.06" occupancy="4.57" waitingTime="0.00" timeLoss="132.92" speed="7.06" speedRelative="0.85" departed="3" arrived="7" entered="207" left="203" laneChangedFrom="0" laneChangedTo="0" flow="230.07"/>
        <edge id="-1065726171#1" sampledSeconds="2539.71" traveltime="5.43" overlapTraveltime="6.35" density="19.40" overlapDensity="22.65" laneDensity="19.40" occupancy="9.88" waitingTime="100.00" timeLoss="638.23" speed="6.26" speedRelative="0.75" departed="4" arrived="6" entered="398" left="396" laneChangedFrom="0" laneChangedTo="0" flow="437.04"/>
        <edge id="-1065726174" sampledSeconds="18.90" traveltime="6.14" overlapTraveltime="6.57" density="0.09" overlapDensity="0.09" laneDensity="0.09" occupancy="0.04" waitingTime="0.00" timeLoss="4.18" speed="10.44" speedRelative="0.75" departed="0" arrived="3" entered="3" left="0" laneChangedFrom="0" laneChangedTo="0" flow="3.36"/>
        <edge id="-1071486787" sampledSeconds="0.00" departed="0" arrived="0" entered="0" left="0" laneChangedFrom="0" laneChangedTo="0"/>
        <edge id="-1071486788" sampledSeconds="0.00" departed="0" arrived="0" entered="0" left="0" laneChangedFrom="0" laneChangedTo="0"/>
        <edge id="-1071486789" sampledSeconds="0.00" departed="0" arrived="0" entered="0" left="0" laneChangedFrom="0" laneChangedTo="0"/>
        <edge id="-1071787530" sampledSeconds="0.00" departed="0" arrived="0" entered="0" left="0" laneChangedFrom="0" laneChangedTo="0"/>
        <edge id="-1072138522" sampledSeconds="35.41" traveltime="5.16" overlapTraveltime="5.99" density="0.17" overlapDensity="0.20" laneDensity="0.17" occupancy="0.09" waitingTime="0.00" timeLoss="7.83" speed="10.04" speedRelative="0.72" departed="0" arrived="4" entered="6" left="2" laneChangedFrom="0" laneChangedTo="0" flow="6.28"/>
        <edge id="-1072143217" sampledSeconds="0.00" departed="0" arrived="0" entered="0" left="0" laneChangedFrom="0" laneChangedTo="0"/>
        <edge id="-1072176585" sampledSeconds="23.49" traveltime="2.85" overlapTraveltime="3.50" density="0.25" overlapDensity="0.29" laneDensity="0.25" occupancy="0.12" waitingTime="0.00" timeLoss="8.00" speed="8.55" speedRelative="0.62" departed="0" arrived="6" entered="7" left="1" laneChangedFrom="0" laneChangedTo="0" flow="7.61"/>
        <edge id="-1072192654" sampledSeconds="100.84" traveltime="2.48" overlapTraveltime="3.10" density="1.32" overlapDensity="1.65" laneDensity="1.32" occupancy="0.67" waitingTime="0.00" timeLoss="40.28" speed="7.72" speedRelative="0.56" departed="1" arrived="7" entered="32" left="26" laneChangedFrom="0" laneChangedTo="0" flow="36.77"/>
        <edge id="-1072192655" sampledSeconds="15.22" traveltime="1.39" overlapTraveltime="2.70" density="0.33" overlapDensity="0.61" laneDensity="0.17" occupancy="0.10" waitingTime="0.00" timeLoss="6.03" speed="4.72" speedRelative="0.34" departed="0" arrived="2" entered="6" left="4" laneChangedFrom="3" laneChangedTo="3" flow="5.68"/>
        <edge id="-1072192656" sampledSeconds="0.00" departed="0" arrived="0" entered="0" left="0" laneChangedFrom="0" laneChangedTo="0"/>
        <edge id="-1072192658" sampledSeconds="0.00" departed="0" arrived="0" entered="0" left="0" laneChangedFrom="0" laneChangedTo="0"/>
        <edge id="-1072192659#0" sampledSeconds="60.60" traveltime="2.14" overlapTraveltime="2.55" density="0.74" overlapDensity="0.89" laneDensity="0.74" occupancy="0.35" waitingTime="0.00" timeLoss="16.64" speed="10.26" speedRelative="0.74" departed="1" arrived="1" entered="23" left="23" laneChangedFrom="0" laneChangedTo="0" flow="27.47"/>
        <edge id="-1072977677" sampledSeconds="0.00" departed="0" arrived="0" entered="0" left="0" laneChangedFrom="0" laneChangedTo="0"/>
        <edge id="-1072992795" sampledSeconds="33.83" traveltime="3.24" overlapTraveltime="3.96" density="0.27" overlapDensity="0.32" laneDensity="0.27" occupancy="0.14" waitingTime="0.00" timeLoss="7.27" speed="9.44" speedRelative="0.68" departed="2" arrived="4" entered="7" left="5" laneChangedFrom="0" laneChangedTo="0" flow="9.02"/>
        <edge id="-1077777151" sampledSeconds="0.00" departed="0" arrived="0" entered="0" left="0" laneChangedFrom="0" laneChangedTo="0"/>
        <edge id="-1077777153" sampledSeconds="0.00" departed="0" arrived="0" entered="0" left="0" laneChangedFrom="0" laneChangedTo="0"/>
        <edge id="-1077777154" sampledSeconds="0.00" departed="0" arrived="0" entered="0" left="0" laneChangedFrom="0" laneChangedTo="0"/>
        <edge id="-1077793341#0" sampledSeconds="0.00" departed="0" arrived="0" entered="0" left="0" laneChangedFrom="0" laneChangedTo="0"/>
        <edge id="-1077807236" sampledSeconds="0.00" departed="0" arrived="0" entered="0" left="0" laneChangedFrom="0" laneChangedTo="0"/>
        <edge id="-1088170204" sampledSeconds="0.00" departed="0" arrived="0" entered="0" left="0" laneChangedFrom="0" laneChangedTo="0"/>
        <edge id="-1092255860" sampledSeconds="2547.25" traveltime="13.84" overlapTraveltime="14.90" density="11.09" overlapDensity="11.96" laneDensity="11.09" occupancy="5.55" waitingTime="0.00" timeLoss="364.46" speed="4.76" speedRelative="0.86" departed="6" arrived="0" entered="168" left="174" laneChangedFrom="0" laneChangedTo="0" flow="190.13"/>
        <edge id="-1120242622" sampledSeconds="0.00" departed="0" arrived="0" entered="0" left="0" laneChangedFrom="0" laneChangedTo="0"/>
        <edge id="-1154155306#1" sampledSeconds="0.00" departed="0" arrived="0" entered="0" left="0" laneChangedFrom="0" laneChangedTo="0"/>
        <edge id="-1154155307#1" sampledSeconds="0.00" departed="0" arrived="0" entered="0" left="0" laneChangedFrom="0" laneChangedTo="0"/>
        <edge id="-1156000158" sampledSeconds="0.00" departed="0" arrived="0" entered="0" left="0" laneChangedFrom="0" laneChangedTo="0"/>
        <edge id="-1212504575" sampledSeconds="8507.52" traveltime="41.96" overlapTraveltime="62.85" density="82.20" overlapDensity="122.93" laneDensity="41.10" occupancy="28.60" waitingTime="8214.00" timeLoss="8247.90" speed="0.42" speedRelative="0.03" departed="4" arrived="0" entered="136" left="136" laneChangedFrom="0" laneChangedTo="0" flow="124.38"/>
        <edge id="-1212506817#1" sampledSeconds="10315.53" traveltime="34.30" overlapTraveltime="34.99" density="78.05" overlapDensity="79.44" laneDensity="39.03" occupancy="18.60" waitingTime="9316.00" timeLoss="9738.03" speed="1.29" speedRelative="0.05" departed="4" arrived="3" entered="298" left="289" laneChangedFrom="0" laneChangedTo="0" flow="362.88"/>
        <edge id="-1214459846" sampledSeconds="162.37" traveltime="6.50" overlapTraveltime="6.86" density="0.66" overlapDensity="0.70" laneDensity="0.66" occupancy="0.32" waitingTime="0.00" timeLoss="36.97" speed="11.22" speedRelative="0.81" departed="3" arrived="0" entered="23" left="26" laneChangedFrom="0" laneChangedTo="0" flow="26.58"/>
        <edge id="-1234167260#0" sampledSeconds="0.00" departed="0" arrived="0" entered="0" left="0" laneChangedFrom="0" laneChangedTo="0"/>
        <edge id="-1234167260#1" sampledSeconds="0.00" departed="0" arrived="0" entered="0" left="0" laneChangedFrom="0" laneChangedTo="0"/>
        <edge id="-1234167261#0" sampledSeconds="0.00" departed="0" arrived="0" entered="0" left="0" laneChangedFrom="0" laneChangedTo="0"/>
        <edge id="-1234167261#1" sampledSeconds="0.00" departed="0" arrived="0" entered="0" left="0" laneChangedFrom="0" laneChangedTo="0"/>
        <edge id="-1234167261#2" sampledSeconds="0.00" departed="0" arrived="0" entered="0" left="0" laneChangedFrom="0" laneChangedTo="0"/>
        <edge id="-1234167261#3" sampledSeconds="0.00" departed="0" arrived="0" entered="0" left="0" laneChangedFrom="0" laneChangedTo="0"/>
        <edge id="-1234167262#0" sampledSeconds="0.00" departed="0" arrived="0" entered="0" left="0" laneChangedFrom="0" laneChangedTo="0"/>
        <edge id="-1234167262#1" sampledSeconds="0.00" departed="0" arrived="0" entered="0" left="0" laneChangedFrom="0" laneChangedTo="0"/>
        <edge id="-1234167263" sampledSeconds="0.00" departed="0" arrived="0" entered="0" left="0" laneChangedFrom="0" laneChangedTo="0"/>
        <edge id="-1234167264#0" sampledSeconds="0.00" departed="0" arrived="0" entered="0" left="0" laneChangedFrom="0" laneChangedTo="0"/>
        <edge id="-1234167264#1" sampledSeconds="0.00" departed="0" arrived="0" entered="0" left="0" laneChangedFrom="0" laneChangedTo="0"/>
        <edge id="-1234167265#0" sampledSeconds="0.00" departed="0" arrived="0" entered="0" left="0" laneChangedFrom="0" laneChangedTo="0"/>
        <edge id="-1234167265#1" sampledSeconds="0.00" departed="0" arrived="0" entered="0" left="0" laneChangedFrom="0" laneChangedTo="0"/>
        <edge id="-1234167266" sampledSeconds="0.00" departed="0" arrived="0" entered="0" left="0" laneChangedFrom="0" laneChangedTo="0"/>
        <edge id="-1234167267" sampledSeconds="0.00" departed="0" arrived="0" entered="0" left="0" laneChangedFrom="0" laneChangedTo="0"/>
        <edge id="-1234167268" sampledSeconds="0.00" departed="0" arrived="0" entered="0" left="0" laneChangedFrom="0" laneChangedTo="0"/>
        <edge id="-1272650816" sampledSeconds="26.87" traveltime="13.18" overlapTraveltime="13.68" density="0.06" overlapDensity="0.06" laneDensity="0.06" occupancy="0.03" waitingTime="0.00" timeLoss="3.70" speed="10.48" speedRelative="0.75" departed="0" arrived="2" entered="2" left="0" laneChangedFrom="0" laneChangedTo="0" flow="2.22"/>
        <edge id="-1272650818" sampledSeconds="138.50" traveltime="4.98" overlapTraveltime="7.37" density="0.65" overlapDensity="0.98" laneDensity="0.65" occupancy="0.41" waitingTime="22.00" timeLoss="62.74" speed="6.59" speedRelative="0.47" departed="6" arrived="0" entered="17" left="23" laneChangedFrom="0" laneChangedTo="0" flow="15.37"/>
        <edge id="-1274179998#0" sampledSeconds="123.21" traveltime="2.48" overlapTraveltime="3.63" density="1.42" overlapDensity="2.07" laneDensity="1.42" occupancy="0.79" waitingTime="9.00" timeLoss="56.05" speed="6.46" speedRelative="0.47" departed="2" arrived="3" entered="33" left="32" laneChangedFrom="0" laneChangedTo="0" flow="33.04"/>
        <edge id="-1275244963" sampledSeconds="96.58" traveltime="2.37" overlapTraveltime="3.52" density="1.84" overlapDensity="2.81" laneDensity="1.84" occupancy="1.05" waitingTime="7.00" timeLoss="55.05" speed="4.44" speedRelative="0.32" departed="4" arrived="0" entered="25" left="29" laneChangedFrom="0" laneChangedTo="0" flow="29.40"/>
        <edge id="-1278348712" sampledSeconds="0.00" departed="0" arrived="0" entered="0" left="0" laneChangedFrom="0" laneChangedTo="0"/>
        <edge id="-1278357471#1" sampledSeconds="0.00" departed="0" arrived="0" entered="0" left="0" laneChangedFrom="0" laneChangedTo="0"/>
        <edge id="-1278358006" sampledSeconds="0.00" departed="0" arrived="0" entered="0" left="0" laneChangedFrom="0" laneChangedTo="0"/>
        <edge id="-1278364486" sampledSeconds="0.00" departed="0" arrived="0" entered="0" left="0" laneChangedFrom="0" laneChangedTo="0"/>
        <edge id="-1278367502" sampledSeconds="0.00" departed="0" arrived="0" entered="0" left="0" laneChangedFrom="0" laneChangedTo="0"/>
        <edge id="-1278367504#0" sampledSeconds="0.00" departed="0" arrived="0" entered="0" left="0" laneChangedFrom="0" laneChangedTo="0"/>
        <edge id="-1278370290#1" sampledSeconds="0.00" departed="0" arrived="0" entered="0" left="0" laneChangedFrom="0" laneChangedTo="0"/>
        <edge id="-1278370872" sampledSeconds="0.00" departed="0" arrived="0" entered="0" left="0" laneChangedFrom="0" laneChangedTo="0"/>
        <edge id="-1278654471" sampledSeconds="0.00" departed="0" arrived="0" entered="0" left="0" laneChangedFrom="0" laneChangedTo="0"/>
        <edge id="-1278654478" sampledSeconds="0.00" departed="0" arrived="0" entered="0" left="0" laneChangedFrom="0" laneChangedTo="0"/>
        <edge id="-1278654480" sampledSeconds="0.00" departed="0" arrived="0" entered="0" left="0" laneChangedFrom="0" laneChangedTo="0"/>
        <edge id="-1278654481" sampledSeconds="0.00" departed="0" arrived="0" entered="0" left="0" laneChangedFrom="0" laneChangedTo="0"/>
        <edge id="-1278654482#0" sampledSeconds="0.00" departed="0" arrived="0" entered="0" left="0" laneChangedFrom="0" laneChangedTo="0"/>
        <edge id="-1278655004" sampledSeconds="22.00" traveltime="6.95" overlapTraveltime="8.00" density="0.20" overlapDensity="0.21" laneDensity="0.20" occupancy="0.10" waitingTime="0.00" timeLoss="3.04" speed="4.70" speedRelative="0.85" departed="0" arrived="3" entered="3" left="0" laneChangedFrom="0" laneChangedTo="0" flow="3.35"/>
        <edge id="-1278655005#0" sampledSeconds="0.00" departed="0" arrived="0" entered="0" left="0" laneChangedFrom="0" laneChangedTo="0"/>
        <edge id="-1278683562" sampledSeconds="0.00" departed="0" arrived="0" entered="0" left="0" laneChangedFrom="0" laneChangedTo="0"/>
        <edge id="-1278683566#0" sampledSeconds="0.00" departed="0" arrived="0" entered="0" left="0" laneChangedFrom="0" laneChangedTo="0"/>
        <edge id="-1278683566#1" sampledSeconds="0.00" departed="0" arrived="0" entered="0" left="0" laneChangedFrom="0" laneChangedTo="0"/>
        <edge id="-1278683567" sampledSeconds="0.00" departed="0" arrived="0" entered="0" left="0" laneChangedFrom="0" laneChangedTo="0"/>
        <edge id="-1278761801#0" sampledSeconds="0.00" departed="0" arrived="0" entered="0" left="0" laneChangedFrom="0" laneChangedTo="0"/>
        <edge id="-1278955670" sampledSeconds="0.00" departed="0" arrived="0" entered="0" left="0" laneChangedFrom="0" laneChangedTo="0"/>
        <edge id="-1279260094" sampledSeconds="0.00" departed="0" arrived="0" entered="0" left="0" laneChangedFrom="0" laneChangedTo="0"/>
        <edge id="-1279681436#0" sampledSeconds="41.23" traveltime="3.29" overlapTraveltime="5.11" density="0.34" overlapDensity="0.57" laneDensity="0.34" occupancy="0.22" waitingTime="0.00" timeLoss="14.70" speed="5.37" speedRelative="0.39" departed="8" arrived="2" entered="3" left="9" laneChangedFrom="0" laneChangedTo="0" flow="6.52"/>
        <edge id="-1279681437#0" sampledSeconds="0.00" departed="0" arrived="0" entered="0" left="0" laneChangedFrom="0" laneChangedTo="0"/>
        <edge id="-1279681438" sampledSeconds="0.00" departed="0" arrived="0" entered="0" left="0" laneChangedFrom="0" laneChangedTo="0"/>
        <edge id="-1279810235#0" sampledSeconds="0.00" departed="0" arrived="0" entered="0" left="0" laneChangedFrom="0" laneChangedTo="0"/>
        <edge id="-1279810236#0" sampledSeconds="0.00" departed="0" arrived="0" entered="0" left="0" laneChangedFrom="0" laneChangedTo="0"/>
        <edge id="-1279810237#0" sampledSeconds="0.00" departed="0" arrived="0" entered="0" left="0" laneChangedFrom="0" laneChangedTo="0"/>
        <edge id="-1279810242#0" sampledSeconds="0.00" departed="0" arrived="0" entered="0" left="0" laneChangedFrom="0" laneChangedTo="0"/>
        <edge id="-1279814597#0" sampledSeconds="0.00" departed="0" arrived="0" entered="0" left="0" laneChangedFrom="0" laneChangedTo="0"/>
        <edge id="-1279814598#1" sampledSeconds="0.00" departed="0" arrived="0" entered="0" left="0" laneChangedFrom="0" laneChangedTo="0"/>
        <edge id="-1279816417" sampledSeconds="14358.68" traveltime="39.56" overlapTraveltime="40.58" density="61.05" overlapDensity="62.51" laneDensity="30.53" occupancy="15.31" waitingTime="10987.00" timeLoss="13275.51" speed="1.88" speedRelative="0.07" departed="4" arrived="1" entered="360" left="345" laneChangedFrom="216" laneChangedTo="216" flow="412.12"/>
        <edge id="-1280058649#0" sampledSeconds="0.00" departed="0" arrived="0" entered="0" left="0" laneChangedFrom="0" laneChangedTo="0"/>
        <edge id="-1280060617#1" sampledSeconds="0.00" departed="0" arrived="0" entered="0" left="0" laneChangedFrom="0" laneChangedTo="0"/>
        <edge id="-1280060618" sampledSeconds="0.00" departed="0" arrived="0" entered="0" left="0" laneChangedFrom="0" laneChangedTo="0"/>
        <edge id="-1280073311" sampledSeconds="0.00" departed="0" arrived="0" entered="0" left="0" laneChangedFrom="0" laneChangedTo="0"/>
        <edge id="-1280079384" sampledSeconds="0.00" departed="0" arrived="0" entered="0" left="0" laneChangedFrom="0" laneChangedTo="0"/>
        <edge id="-1280079385#0" sampledSeconds="0.00" departed="0" arrived="0" entered="0" left="0" laneChangedFrom="0" laneChangedTo="0"/>
        <edge id="-1280079388#1" sampledSeconds="11828.32" traveltime="56.20" overlapTraveltime="57.55" density="140.02" overlapDensity="143.17" laneDensity="70.01" occupancy="32.62" waitingTime="10441.00" timeLoss="11354.41" speed="0.53" speedRelative="0.04" departed="2" arrived="0" entered="208" left="204" laneChangedFrom="47" laneChangedTo="47" flow="267.77"/>
        <edge id="-1280084164" sampledSeconds="0.00" departed="0" arrived="0" entered="0" left="0" laneChangedFrom="0" laneChangedTo="0"/>
        <edge id="-1280084165#0" sampledSeconds="0.00" departed="0" arrived="0" entered="0" left="0" laneChangedFrom="0" laneChangedTo="0"/>
        <edge id="-1280084165#1" sampledSeconds="0.00" departed="0" arrived="0" entered="0" left="0" laneChangedFrom="0" laneChangedTo="0"/>
        <edge id="-1280084168#0" sampledSeconds="0.00" departed="0" arrived="0" entered="0" left="0" laneChangedFrom="0" laneChangedTo="0"/>
        <edge id="-1280084173#0" sampledSeconds="0.00" departed="0" arrived="0" entered="0" left="0" laneChangedFrom="0" laneChangedTo="0"/>
        <edge id="-1280084174#1" sampledSeconds="0.00" departed="0" arrived="0" entered="0" left="0" laneChangedFrom="0" laneChangedTo="0"/>
        <edge id="-1280086013" sampledSeconds="504.25" traveltime="6.43" overlapTraveltime="17.61" density="2.50" overlapDensity="6.93" laneDensity="2.50" occupancy="2.93" waitingTime="346.00" timeLoss="436.46" speed="1.56" speedRelative="0.11" departed="4" arrived="0" entered="26" left="30" laneChangedFrom="0" laneChangedTo="0" flow="14.08"/>
        <edge id="-1280828148" sampledSeconds="0.00" departed="0" arrived="0" entered="0" left="0" laneChangedFrom="0" laneChangedTo="0"/>
        <edge id="-1281348522" sampledSeconds="0.00" departed="0" arrived="0" entered="0" left="0" laneChangedFrom="0" laneChangedTo="0"/>
        <edge id="-1281884999" sampledSeconds="0.00" departed="0" arrived="0" entered="0" left="0" laneChangedFrom="0" laneChangedTo="0"/>
        <edge id="-1288391059" sampledSeconds="0.00" departed="0" arrived="0" entered="0" left="0" laneChangedFrom="0" laneChangedTo="0"/>
        <edge id="-1288410664" sampledSeconds="102.81" traveltime="3.73" overlapTraveltime="4.50" density="0.62" overlapDensity="0.75" laneDensity="0.62" occupancy="0.33" waitingTime="0.00" timeLoss="15.33" speed="10.48" speedRelative="0.75" departed="1" arrived="3" entered="22" left="20" laneChangedFrom="0" laneChangedTo="0" flow="23.54"/>
        <edge id="-1288410665" sampledSeconds="0.00" departed="0" arrived="0" entered="0" left="0" laneChangedFrom="0" laneChangedTo="0"/>
        <edge id="-1289152445" sampledSeconds="357.79" traveltime="7.38" overlapTraveltime="8.22" density="1.23" overlapDensity="1.38" laneDensity="1.23" occupancy="0.63" waitingTime="0.00" timeLoss="69.40" speed="10.38" speedRelative="0.75" departed="2" arrived="1" entered="43" left="44" laneChangedFrom="0" laneChangedTo="0" flow="46.13"/>
        <edge id="-1289152448" sampledSeconds="81.29" traveltime="5.20" overlapTraveltime="6.29" density="0.51" overlapDensity="0.63" laneDensity="0.51" occupancy="0.26" waitingTime="0.00" timeLoss="38.13" speed="7.12" speedRelative="0.51" departed="5" arrived="5" entered="10" left="10" laneChangedFrom="0" laneChangedTo="0" flow="13.14"/>
        <edge id="-1289152449" sampledSeconds="52.69" traveltime="4.58" overlapTraveltime="5.56" density="0.28" overlapDensity="0.34" laneDensity="0.28" occupancy="0.15" waitingTime="0.00" timeLoss="10.07" speed="9.41" speedRelative="0.68" departed="5" arrived="2" entered="7" left="10" laneChangedFrom="0" laneChangedTo="0" flow="9.35"/>
        <edge id="-1289152450#0" sampledSeconds="121.59" traveltime="6.32" overlapTraveltime="7.27" density="0.49" overlapDensity="0.57" laneDensity="0.49" occupancy="0.26" waitingTime="0.00" timeLoss="26.98" speed="9.79" speedRelative="0.71" departed="5" arrived="3" entered="14" left="16" laneChangedFrom="0" laneChangedTo="0" flow="17.38"/>
        <edge id="-1289152450#1" sampledSeconds="652.90" traveltime="0.39" overlapTraveltime="25.16" density="1.42" overlapDensity="89.41" laneDensity="1.42" occupancy="19.92" waitingTime="623.00" timeLoss="632.82" speed="0.29" speedRelative="0.02" departed="1" arrived="1" entered="26" left="26" laneChangedFrom="0" laneChangedTo="0" flow="1.47"/>
        <edge id="-1291554831" sampledSeconds="71.51" traveltime="3.17" overlapTraveltime="4.27" density="1.21" overlapDensity="1.63" laneDensity="1.21" occupancy="0.63" waitingTime="14.00" timeLoss="36.99" speed="4.34" speedRelative="0.31" departed="2" arrived="1" entered="16" left="16" laneChangedFrom="0" laneChangedTo="0" flow="18.91"/>
        <edge id="-1291573302" sampledSeconds="853.70" traveltime="93.12" overlapTraveltime="94.04" density="2.20" overlapDensity="2.22" laneDensity="2.20" occupancy="1.10" waitingTime="741.00" timeLoss="767.28" speed="1.32" speedRelative="0.09" departed="4" arrived="0" entered="6" left="9" laneChangedFrom="0" laneChangedTo="0" flow="10.44"/>
        <edge id="-1291931391" sampledSeconds="321.38" traveltime="3.90" overlapTraveltime="4.88" density="8.38" overlapDensity="10.47" laneDensity="8.38" occupancy="3.90" waitingTime="109.00" timeLoss="228.21" speed="2.97" speedRelative="0.21" departed="0" arrived="3" entered="66" left="63" laneChangedFrom="0" laneChangedTo="0" flow="89.66"/>
        <edge id="-1292162268#1" sampledSeconds="141.90" traveltime="2.67" overlapTraveltime="3.86" density="1.90" overlapDensity="2.81" laneDensity="0.95" occupancy="0.55" waitingTime="8.00" timeLoss="56.30" speed="5.35" speedRelative="0.48" departed="6" arrived="2" entered="33" left="37" laneChangedFrom="0" laneChangedTo="0" flow="36.66"/>
        <edge id="-1292162270" sampledSeconds="0.00" departed="0" arrived="0" entered="0" left="0" laneChangedFrom="0" laneChangedTo="0"/>
        <edge id="-1292162271" sampledSeconds="44.26" traveltime="1.04" overlapTraveltime="1.52" density="0.89" overlapDensity="1.30" laneDensity="0.44" occupancy="0.22" waitingTime="0.00" timeLoss="3.73" speed="10.22" speedRelative="0.92" departed="3" arrived="4" entered="28" left="27" laneChangedFrom="0" laneChangedTo="0" flow="32.63"/>