<?xml version="1.0" encoding="UTF-8"?>

<<<<<<< HEAD
<!-- generated on 2026-02-18T17:50:53.577230+08:00 by Eclipse SUMO GUI 1.25.0
=======
<!-- generated on 2026-02-07T14:52:34.840446+08:00 by Eclipse SUMO GUI 1.25.0
>>>>>>> 474b73e016da591880f557dd0ef53a9fb2d76c9e
<sumoConfiguration xmlns:xsi="http://www.w3.org/2001/XMLSchema-instance" xsi:noNamespaceSchemaLocation="http://sumo.dlr.de/xsd/sumoConfiguration.xsd">

    <input>
        <net-file value="c:\Users\otaku\Documents\Thesis\apriori_civiq\scenarios/bgc_full/final_map.net.xml"/>
<<<<<<< HEAD
        <route-files value="c:\Users\otaku\Documents\Thesis\apriori_civiq\scenarios/bgc_full/wardrop_routes_highEnough.rou.xml"/>
=======
        <route-files value="c:\Users\otaku\Documents\Thesis\apriori_civiq\scenarios/bgc_full/trips_high.xml"/>
>>>>>>> 474b73e016da591880f557dd0ef53a9fb2d76c9e
        <additional-files value="c:\Users\otaku\Documents\Thesis\apriori_civiq\scenarios/bgc_full/osm.poly.xml.gz,c:\Users\otaku\Documents\Thesis\apriori_civiq\scenarios/bgc_full/output.add.xml,c:\Users\otaku\Documents\Thesis\apriori_civiq\scenarios/bgc_full/vtypes.add.xml"/>
    </input>

    <output>
<<<<<<< HEAD
        <summary-output value="c:\Users\otaku\Documents\Thesis\apriori_civiq\scenarios/bgc_full/data\summary_highEnough.xml"/>
        <tripinfo-output value="c:\Users\otaku\Documents\Thesis\apriori_civiq\scenarios/bgc_full/data\tripinfo_highEnough.xml"/>
        <statistic-output value="c:\Users\otaku\Documents\Thesis\apriori_civiq\scenarios/bgc_full/data\stats_highEnough.xml"/>
=======
        <summary-output value="c:\Users\otaku\Documents\Thesis\apriori_civiq\scenarios/bgc_full/data\data_selfish_high_summary.xml"/>
        <tripinfo-output value="c:\Users\otaku\Documents\Thesis\apriori_civiq\scenarios/bgc_full/data\data_selfish_high_tripinfo.xml"/>
        <statistic-output value="c:\Users\otaku\Documents\Thesis\apriori_civiq\scenarios/bgc_full/data\data_selfish_high_stats.xml"/>
>>>>>>> 474b73e016da591880f557dd0ef53a9fb2d76c9e
    </output>

    <time>
        <step-length value="1.0"/>
    </time>

    <processing>
        <ignore-route-errors value="true"/>
        <time-to-teleport value="-1"/>
        <tls.actuated.jam-threshold value="30"/>
    </processing>

    <routing>
        <device.rerouting.adaptation-steps value="18"/>
        <device.rerouting.adaptation-interval value="10"/>
    </routing>

    <report>
        <verbose value="true"/>
        <duration-log.statistics value="true"/>
        <no-step-log value="true"/>
    </report>

    <emissions>
        <device.emissions.probability value="1.0"/>
    </emissions>

    <traci_server>
<<<<<<< HEAD
        <remote-port value="61663"/>
=======
        <remote-port value="65184"/>
>>>>>>> 474b73e016da591880f557dd0ef53a9fb2d76c9e
    </traci_server>

    <gui_only>
        <gui-settings-file value="c:\Users\otaku\Documents\Thesis\apriori_civiq\scenarios/bgc_full/osm.view.xml"/>
        <start value="true"/>
    </gui_only>

</sumoConfiguration>
-->

<meandata xmlns:xsi="http://www.w3.org/2001/XMLSchema-instance" xsi:noNamespaceSchemaLocation="http://sumo.dlr.de/xsd/meandata_file.xsd">
    <interval begin="0.00" end="3600.00" id="wizard_example">
<<<<<<< HEAD
        <edge id="-1008051258#0" sampledSeconds="242.32" traveltime="3.57" overlapTraveltime="4.16" density="1.36" overlapDensity="1.58" laneDensity="1.36" occupancy="0.69" waitingTime="0.00" timeLoss="36.89" speed="11.42" speedRelative="0.82" departed="1" arrived="3" entered="58" left="56" laneChangedFrom="0" laneChangedTo="0" flow="55.76"/>
        <edge id="-1008051258#1" sampledSeconds="163.89" traveltime="2.13" overlapTraveltime="2.66" density="1.60" overlapDensity="1.99" laneDensity="1.60" occupancy="0.80" waitingTime="0.00" timeLoss="32.46" speed="10.46" speedRelative="0.75" departed="1" arrived="5" entered="61" left="57" laneChangedFrom="0" laneChangedTo="0" flow="60.15"/>
        <edge id="-1008051258#2" sampledSeconds="219.29" traveltime="2.82" overlapTraveltime="3.48" density="2.10" overlapDensity="2.59" laneDensity="2.10" occupancy="1.08" waitingTime="0.00" timeLoss="86.98" speed="8.19" speedRelative="0.59" departed="0" arrived="3" entered="63" left="60" laneChangedFrom="0" laneChangedTo="0" flow="61.81"/>
        <edge id="-1008051258#3" sampledSeconds="258.88" traveltime="2.67" overlapTraveltime="3.42" density="2.73" overlapDensity="3.49" laneDensity="2.73" occupancy="1.43" waitingTime="2.00" timeLoss="109.04" speed="7.49" speedRelative="0.54" departed="1" arrived="1" entered="75" left="75" laneChangedFrom="0" laneChangedTo="0" flow="73.61"/>
        <edge id="-1008051258#4" sampledSeconds="208.85" traveltime="2.72" overlapTraveltime="3.14" density="1.99" overlapDensity="2.31" laneDensity="1.99" occupancy="0.95" waitingTime="0.00" timeLoss="61.87" speed="9.59" speedRelative="0.69" departed="2" arrived="1" entered="65" left="66" laneChangedFrom="0" laneChangedTo="0" flow="68.67"/>
        <edge id="-1008051258#5" sampledSeconds="0.00" departed="0" arrived="0" entered="0" left="0" laneChangedFrom="0" laneChangedTo="0"/>
        <edge id="-101376482" sampledSeconds="0.00" departed="0" arrived="0" entered="0" left="0" laneChangedFrom="0" laneChangedTo="0"/>
        <edge id="-101376495#1" sampledSeconds="0.00" departed="0" arrived="0" entered="0" left="0" laneChangedFrom="0" laneChangedTo="0"/>
        <edge id="-101476579" sampledSeconds="935.31" traveltime="4.94" overlapTraveltime="5.77" density="6.20" overlapDensity="7.26" laneDensity="3.10" occupancy="1.57" waitingTime="0.00" timeLoss="167.83" speed="7.07" speedRelative="0.85" departed="0" arrived="3" entered="162" left="159" laneChangedFrom="0" laneChangedTo="0" flow="157.81"/>
        <edge id="-101476581" sampledSeconds="1.38" traveltime="1.45" overlapTraveltime="2.50" density="0.01" overlapDensity="0.06" laneDensity="0.01" occupancy="0.02" waitingTime="0.00" timeLoss="0.44" speed="4.77" speedRelative="0.34" departed="1" arrived="0" entered="0" left="1" laneChangedFrom="0" laneChangedTo="0" flow="0.23"/>
=======
        <edge id="-1008051258#0" sampledSeconds="90.60" traveltime="3.39" overlapTraveltime="3.77" density="0.53" overlapDensity="0.59" laneDensity="0.53" occupancy="0.24" waitingTime="0.00" timeLoss="8.62" speed="12.45" speedRelative="0.90" departed="0" arrived="0" entered="24" left="24" laneChangedFrom="0" laneChangedTo="0" flow="23.82"/>
        <edge id="-1008051258#1" sampledSeconds="48.96" traveltime="1.87" overlapTraveltime="2.23" density="0.50" overlapDensity="0.59" laneDensity="0.50" occupancy="0.22" waitingTime="0.00" timeLoss="5.48" speed="12.30" speedRelative="0.89" departed="0" arrived="0" entered="22" left="22" laneChangedFrom="0" laneChangedTo="0" flow="22.11"/>
        <edge id="-1008051258#2" sampledSeconds="91.40" traveltime="2.70" overlapTraveltime="3.26" density="0.89" overlapDensity="1.08" laneDensity="0.89" occupancy="0.41" waitingTime="0.00" timeLoss="32.71" speed="8.58" speedRelative="0.62" departed="0" arrived="1" entered="28" left="27" laneChangedFrom="0" laneChangedTo="0" flow="27.63"/>
        <edge id="-1008051258#3" sampledSeconds="99.54" traveltime="2.59" overlapTraveltime="3.21" density="1.08" overlapDensity="1.34" laneDensity="1.08" occupancy="0.51" waitingTime="0.00" timeLoss="41.85" speed="7.82" speedRelative="0.56" departed="0" arrived="0" entered="31" left="31" laneChangedFrom="0" laneChangedTo="0" flow="30.46"/>
        <edge id="-1008051258#4" sampledSeconds="103.62" traveltime="2.78" overlapTraveltime="3.24" density="0.98" overlapDensity="1.14" laneDensity="0.98" occupancy="0.43" waitingTime="0.00" timeLoss="32.37" speed="9.16" speedRelative="0.66" departed="0" arrived="0" entered="32" left="32" laneChangedFrom="0" laneChangedTo="0" flow="32.41"/>
        <edge id="-1008051258#5" sampledSeconds="5.08" traveltime="5.46" overlapTraveltime="5.94" density="0.05" overlapDensity="0.05" laneDensity="0.05" occupancy="0.02" waitingTime="0.00" timeLoss="2.96" speed="5.31" speedRelative="0.38" departed="1" arrived="0" entered="0" left="1" laneChangedFrom="0" laneChangedTo="0" flow="0.89"/>
        <edge id="-101376482" sampledSeconds="0.00" departed="0" arrived="0" entered="0" left="0" laneChangedFrom="0" laneChangedTo="0"/>
        <edge id="-101376495#1" sampledSeconds="0.00" departed="0" arrived="0" entered="0" left="0" laneChangedFrom="0" laneChangedTo="0"/>
        <edge id="-101476579" sampledSeconds="298.26" traveltime="5.02" overlapTraveltime="5.74" density="2.02" overlapDensity="2.31" laneDensity="1.01" occupancy="0.46" waitingTime="0.00" timeLoss="45.38" speed="7.03" speedRelative="0.84" departed="0" arrived="0" entered="52" left="52" laneChangedFrom="0" laneChangedTo="0" flow="51.20"/>
        <edge id="-101476581" sampledSeconds="22.14" traveltime="2.54" overlapTraveltime="3.27" density="0.48" overlapDensity="0.89" laneDensity="0.48" occupancy="0.29" waitingTime="0.00" timeLoss="12.97" speed="3.50" speedRelative="0.25" departed="8" arrived="0" entered="2" left="10" laneChangedFrom="0" laneChangedTo="0" flow="6.01"/>
>>>>>>> 474b73e016da591880f557dd0ef53a9fb2d76c9e
        <edge id="-1022486131#1" sampledSeconds="0.00" departed="0" arrived="0" entered="0" left="0" laneChangedFrom="0" laneChangedTo="0"/>
        <edge id="-1042494593#0" sampledSeconds="0.00" departed="0" arrived="0" entered="0" left="0" laneChangedFrom="0" laneChangedTo="0"/>
        <edge id="-104357790#0" sampledSeconds="0.00" departed="0" arrived="0" entered="0" left="0" laneChangedFrom="0" laneChangedTo="0"/>
        <edge id="-104357790#1" sampledSeconds="0.00" departed="0" arrived="0" entered="0" left="0" laneChangedFrom="0" laneChangedTo="0"/>
<<<<<<< HEAD
        <edge id="-1064374314#0" sampledSeconds="3.21" traveltime="2.85" overlapTraveltime="3.21" density="0.02" overlapDensity="0.02" laneDensity="0.02" occupancy="0.01" waitingTime="0.00" timeLoss="0.15" speed="14.21" speedRelative="1.02" departed="0" arrived="1" entered="1" left="0" laneChangedFrom="0" laneChangedTo="0" flow="1.00"/>
        <edge id="-1064374314#1" sampledSeconds="4.86" traveltime="4.49" overlapTraveltime="4.86" density="0.03" overlapDensity="0.04" laneDensity="0.03" occupancy="0.02" waitingTime="0.00" timeLoss="1.95" speed="8.91" speedRelative="0.64" departed="0" arrived="0" entered="1" left="1" laneChangedFrom="0" laneChangedTo="0" flow="1.04"/>
        <edge id="-1064386463" sampledSeconds="18.79" traveltime="5.89" overlapTraveltime="6.26" density="0.07" overlapDensity="0.08" laneDensity="0.07" occupancy="0.04" waitingTime="0.00" timeLoss="3.03" speed="11.61" speedRelative="0.84" departed="0" arrived="1" entered="3" left="2" laneChangedFrom="0" laneChangedTo="0" flow="3.03"/>
        <edge id="-1064386464" sampledSeconds="18.40" traveltime="3.38" overlapTraveltime="3.78" density="0.11" overlapDensity="0.12" laneDensity="0.11" occupancy="0.06" waitingTime="0.00" timeLoss="1.70" speed="12.25" speedRelative="0.88" departed="0" arrived="5" entered="5" left="0" laneChangedFrom="0" laneChangedTo="0" flow="5.01"/>
        <edge id="-1065726171#0" sampledSeconds="1097.13" traveltime="4.08" overlapTraveltime="4.81" density="8.88" overlapDensity="10.48" laneDensity="8.88" occupancy="4.48" waitingTime="0.00" timeLoss="144.43" speed="7.08" speedRelative="0.85" departed="3" arrived="7" entered="227" left="223" laneChangedFrom="0" laneChangedTo="0" flow="226.43"/>
        <edge id="-1065726171#1" sampledSeconds="2774.26" traveltime="5.41" overlapTraveltime="6.31" density="19.04" overlapDensity="22.21" laneDensity="19.04" occupancy="9.69" waitingTime="100.00" timeLoss="688.58" speed="6.29" speedRelative="0.75" departed="4" arrived="6" entered="437" left="435" laneChangedFrom="0" laneChangedTo="0" flow="430.90"/>
        <edge id="-1065726174" sampledSeconds="18.90" traveltime="6.14" overlapTraveltime="6.57" density="0.08" overlapDensity="0.08" laneDensity="0.08" occupancy="0.04" waitingTime="0.00" timeLoss="4.18" speed="10.44" speedRelative="0.75" departed="0" arrived="3" entered="3" left="0" laneChangedFrom="0" laneChangedTo="0" flow="3.02"/>
        <edge id="-1071486787" sampledSeconds="0.00" departed="0" arrived="0" entered="0" left="0" laneChangedFrom="0" laneChangedTo="0"/>
        <edge id="-1071486788" sampledSeconds="0.00" departed="0" arrived="0" entered="0" left="0" laneChangedFrom="0" laneChangedTo="0"/>
        <edge id="-1071486789" sampledSeconds="0.00" departed="0" arrived="0" entered="0" left="0" laneChangedFrom="0" laneChangedTo="0"/>
        <edge id="-1071787530" sampledSeconds="0.00" departed="0" arrived="0" entered="0" left="0" laneChangedFrom="0" laneChangedTo="0"/>
        <edge id="-1072138522" sampledSeconds="35.41" traveltime="5.16" overlapTraveltime="5.99" density="0.16" overlapDensity="0.18" laneDensity="0.16" occupancy="0.08" waitingTime="0.00" timeLoss="7.83" speed="10.04" speedRelative="0.72" departed="0" arrived="4" entered="6" left="2" laneChangedFrom="0" laneChangedTo="0" flow="5.63"/>
        <edge id="-1072143217" sampledSeconds="0.00" departed="0" arrived="0" entered="0" left="0" laneChangedFrom="0" laneChangedTo="0"/>
        <edge id="-1072176585" sampledSeconds="23.49" traveltime="2.85" overlapTraveltime="3.50" density="0.22" overlapDensity="0.26" laneDensity="0.22" occupancy="0.11" waitingTime="0.00" timeLoss="8.00" speed="8.55" speedRelative="0.62" departed="0" arrived="6" entered="7" left="1" laneChangedFrom="0" laneChangedTo="0" flow="6.83"/>
        <edge id="-1072192654" sampledSeconds="122.93" traveltime="2.48" overlapTraveltime="3.11" density="1.44" overlapDensity="1.80" laneDensity="1.44" occupancy="0.73" waitingTime="0.00" timeLoss="49.44" speed="7.69" speedRelative="0.55" departed="1" arrived="8" entered="39" left="32" laneChangedFrom="0" laneChangedTo="0" flow="39.98"/>
        <edge id="-1072192655" sampledSeconds="15.22" traveltime="1.39" overlapTraveltime="2.70" density="0.30" overlapDensity="0.55" laneDensity="0.15" occupancy="0.09" waitingTime="0.00" timeLoss="6.03" speed="4.72" speedRelative="0.34" departed="0" arrived="2" entered="6" left="4" laneChangedFrom="3" laneChangedTo="3" flow="5.09"/>
        <edge id="-1072192656" sampledSeconds="0.00" departed="0" arrived="0" entered="0" left="0" laneChangedFrom="0" laneChangedTo="0"/>
        <edge id="-1072192658" sampledSeconds="0.00" departed="0" arrived="0" entered="0" left="0" laneChangedFrom="0" laneChangedTo="0"/>
        <edge id="-1072192659#0" sampledSeconds="76.41" traveltime="2.16" overlapTraveltime="2.57" density="0.84" overlapDensity="1.00" laneDensity="0.84" occupancy="0.40" waitingTime="0.00" timeLoss="21.21" speed="10.19" speedRelative="0.73" departed="1" arrived="1" entered="29" left="29" laneChangedFrom="0" laneChangedTo="0" flow="30.89"/>
        <edge id="-1072977677" sampledSeconds="0.00" departed="0" arrived="0" entered="0" left="0" laneChangedFrom="0" laneChangedTo="0"/>
        <edge id="-1072992795" sampledSeconds="33.83" traveltime="3.24" overlapTraveltime="3.96" density="0.24" overlapDensity="0.29" laneDensity="0.24" occupancy="0.13" waitingTime="0.00" timeLoss="7.27" speed="9.44" speedRelative="0.68" departed="2" arrived="4" entered="7" left="5" laneChangedFrom="0" laneChangedTo="0" flow="8.09"/>
=======
        <edge id="-1064374314#0" sampledSeconds="0.00" departed="0" arrived="0" entered="0" left="0" laneChangedFrom="0" laneChangedTo="0"/>
        <edge id="-1064374314#1" sampledSeconds="0.00" departed="0" arrived="0" entered="0" left="0" laneChangedFrom="0" laneChangedTo="0"/>
        <edge id="-1064386463" sampledSeconds="0.00" departed="0" arrived="0" entered="0" left="0" laneChangedFrom="0" laneChangedTo="0"/>
        <edge id="-1064386464" sampledSeconds="36.68" traveltime="3.81" overlapTraveltime="4.16" density="0.23" overlapDensity="0.25" laneDensity="0.23" occupancy="0.10" waitingTime="0.00" timeLoss="7.35" speed="11.01" speedRelative="0.79" departed="0" arrived="9" entered="9" left="0" laneChangedFrom="0" laneChangedTo="0" flow="9.13"/>
        <edge id="-1065726171#0" sampledSeconds="88.38" traveltime="3.95" overlapTraveltime="4.69" density="0.71" overlapDensity="0.84" laneDensity="0.71" occupancy="0.33" waitingTime="0.00" timeLoss="9.26" speed="7.17" speedRelative="0.86" departed="1" arrived="0" entered="18" left="19" laneChangedFrom="0" laneChangedTo="0" flow="18.35"/>
        <edge id="-1065726171#1" sampledSeconds="1222.23" traveltime="5.95" overlapTraveltime="6.98" density="8.33" overlapDensity="9.78" laneDensity="8.33" occupancy="3.82" waitingTime="72.00" timeLoss="417.63" speed="5.61" speedRelative="0.67" departed="0" arrived="0" entered="175" left="175" laneChangedFrom="0" laneChangedTo="0" flow="168.38"/>
        <edge id="-1065726174" sampledSeconds="30.76" traveltime="5.90" overlapTraveltime="6.26" density="0.13" overlapDensity="0.13" laneDensity="0.13" occupancy="0.06" waitingTime="0.00" timeLoss="6.20" speed="10.89" speedRelative="0.78" departed="0" arrived="5" entered="5" left="0" laneChangedFrom="0" laneChangedTo="0" flow="5.04"/>
        <edge id="-1071486787" sampledSeconds="0.00" departed="0" arrived="0" entered="0" left="0" laneChangedFrom="0" laneChangedTo="0"/>
        <edge id="-1071486788" sampledSeconds="0.00" departed="0" arrived="0" entered="0" left="0" laneChangedFrom="0" laneChangedTo="0"/>
        <edge id="-1071486789" sampledSeconds="0.00" departed="0" arrived="0" entered="0" left="0" laneChangedFrom="0" laneChangedTo="0"/>
        <edge id="-1071787530" sampledSeconds="23.43" traveltime="5.56" overlapTraveltime="5.95" density="0.11" overlapDensity="0.11" laneDensity="0.11" occupancy="0.05" waitingTime="0.00" timeLoss="4.09" speed="10.54" speedRelative="0.76" departed="0" arrived="4" entered="4" left="0" laneChangedFrom="0" laneChangedTo="0" flow="4.03"/>
        <edge id="-1072138522" sampledSeconds="28.24" traveltime="5.12" overlapTraveltime="5.70" density="0.13" overlapDensity="0.14" laneDensity="0.13" occupancy="0.06" waitingTime="0.00" timeLoss="5.92" speed="10.47" speedRelative="0.75" departed="0" arrived="4" entered="5" left="1" laneChangedFrom="0" laneChangedTo="0" flow="4.86"/>
        <edge id="-1072143217" sampledSeconds="0.00" departed="0" arrived="0" entered="0" left="0" laneChangedFrom="0" laneChangedTo="0"/>
        <edge id="-1072176585" sampledSeconds="17.95" traveltime="2.73" overlapTraveltime="3.14" density="0.18" overlapDensity="0.20" laneDensity="0.18" occupancy="0.08" waitingTime="0.00" timeLoss="5.60" speed="9.36" speedRelative="0.67" departed="0" arrived="6" entered="6" left="0" laneChangedFrom="0" laneChangedTo="0" flow="6.14"/>
        <edge id="-1072192654" sampledSeconds="34.38" traveltime="2.50" overlapTraveltime="3.14" density="0.40" overlapDensity="0.50" laneDensity="0.40" occupancy="0.19" waitingTime="0.00" timeLoss="14.71" speed="7.46" speedRelative="0.54" departed="0" arrived="1" entered="11" left="10" laneChangedFrom="0" laneChangedTo="0" flow="10.84"/>
        <edge id="-1072192655" sampledSeconds="9.59" traveltime="1.47" overlapTraveltime="2.65" density="0.18" overlapDensity="0.34" laneDensity="0.09" occupancy="0.05" waitingTime="0.00" timeLoss="4.71" speed="4.63" speedRelative="0.33" departed="1" arrived="2" entered="3" left="2" laneChangedFrom="1" laneChangedTo="1" flow="2.99"/>
        <edge id="-1072192656" sampledSeconds="4.83" traveltime="5.28" overlapTraveltime="5.64" density="0.04" overlapDensity="0.05" laneDensity="0.04" occupancy="0.02" waitingTime="0.00" timeLoss="2.72" speed="5.62" speedRelative="0.40" departed="1" arrived="0" entered="0" left="1" laneChangedFrom="0" laneChangedTo="0" flow="0.91"/>
        <edge id="-1072192658" sampledSeconds="0.00" departed="0" arrived="0" entered="0" left="0" laneChangedFrom="0" laneChangedTo="0"/>
        <edge id="-1072192659#0" sampledSeconds="13.34" traveltime="1.59" overlapTraveltime="1.91" density="0.15" overlapDensity="0.18" laneDensity="0.15" occupancy="0.06" waitingTime="0.00" timeLoss="1.30" speed="13.47" speedRelative="0.97" departed="0" arrived="0" entered="7" left="7" laneChangedFrom="0" laneChangedTo="0" flow="7.06"/>
        <edge id="-1072977677" sampledSeconds="0.00" departed="0" arrived="0" entered="0" left="0" laneChangedFrom="0" laneChangedTo="0"/>
        <edge id="-1072992795" sampledSeconds="8.95" traveltime="4.31" overlapTraveltime="4.87" density="0.07" overlapDensity="0.08" laneDensity="0.07" occupancy="0.03" waitingTime="0.00" timeLoss="3.80" speed="7.58" speedRelative="0.55" departed="1" arrived="1" entered="1" left="1" laneChangedFrom="0" laneChangedTo="0" flow="1.87"/>
>>>>>>> 474b73e016da591880f557dd0ef53a9fb2d76c9e
        <edge id="-1077777151" sampledSeconds="0.00" departed="0" arrived="0" entered="0" left="0" laneChangedFrom="0" laneChangedTo="0"/>
        <edge id="-1077777153" sampledSeconds="0.00" departed="0" arrived="0" entered="0" left="0" laneChangedFrom="0" laneChangedTo="0"/>
        <edge id="-1077777154" sampledSeconds="0.00" departed="0" arrived="0" entered="0" left="0" laneChangedFrom="0" laneChangedTo="0"/>
        <edge id="-1077793341#0" sampledSeconds="0.00" departed="0" arrived="0" entered="0" left="0" laneChangedFrom="0" laneChangedTo="0"/>
        <edge id="-1077807236" sampledSeconds="0.00" departed="0" arrived="0" entered="0" left="0" laneChangedFrom="0" laneChangedTo="0"/>
        <edge id="-1088170204" sampledSeconds="0.00" departed="0" arrived="0" entered="0" left="0" laneChangedFrom="0" laneChangedTo="0"/>
<<<<<<< HEAD
        <edge id="-1092255860" sampledSeconds="2589.78" traveltime="13.83" overlapTraveltime="14.89" density="10.12" overlapDensity="10.91" laneDensity="10.12" occupancy="5.07" waitingTime="0.00" timeLoss="369.43" speed="4.77" speedRelative="0.86" departed="6" arrived="0" entered="171" left="177" laneChangedFrom="0" laneChangedTo="0" flow="173.65"/>
=======
        <edge id="-1092255860" sampledSeconds="741.69" traveltime="14.17" overlapTraveltime="15.14" density="2.92" overlapDensity="3.12" laneDensity="2.92" occupancy="1.32" waitingTime="4.00" timeLoss="117.88" speed="4.65" speedRelative="0.84" departed="0" arrived="0" entered="49" left="49" laneChangedFrom="0" laneChangedTo="0" flow="48.99"/>
>>>>>>> 474b73e016da591880f557dd0ef53a9fb2d76c9e
        <edge id="-1120242622" sampledSeconds="0.00" departed="0" arrived="0" entered="0" left="0" laneChangedFrom="0" laneChangedTo="0"/>
        <edge id="-1154155306#1" sampledSeconds="0.00" departed="0" arrived="0" entered="0" left="0" laneChangedFrom="0" laneChangedTo="0"/>
        <edge id="-1154155307#1" sampledSeconds="0.00" departed="0" arrived="0" entered="0" left="0" laneChangedFrom="0" laneChangedTo="0"/>
        <edge id="-1156000158" sampledSeconds="0.00" departed="0" arrived="0" entered="0" left="0" laneChangedFrom="0" laneChangedTo="0"/>
<<<<<<< HEAD
        <edge id="-1212504575" sampledSeconds="10721.52" traveltime="52.84" overlapTraveltime="79.21" density="92.91" overlapDensity="139.04" laneDensity="46.46" occupancy="32.38" waitingTime="10428.00" timeLoss="10461.90" speed="0.33" speedRelative="0.02" departed="4" arrived="0" entered="136" left="136" laneChangedFrom="0" laneChangedTo="0" flow="111.56"/>
        <edge id="-1212506817#1" sampledSeconds="14005.53" traveltime="46.79" overlapTraveltime="47.51" density="95.56" overlapDensity="96.80" laneDensity="47.78" occupancy="22.76" waitingTime="13006.00" timeLoss="13428.03" speed="0.95" speedRelative="0.03" departed="4" arrived="3" entered="298" left="289" laneChangedFrom="0" laneChangedTo="0" flow="327.20"/>
        <edge id="-1214459846" sampledSeconds="174.52" traveltime="6.44" overlapTraveltime="6.80" density="0.63" overlapDensity="0.67" laneDensity="0.63" occupancy="0.31" waitingTime="0.00" timeLoss="38.79" speed="11.32" speedRelative="0.81" departed="3" arrived="0" entered="25" left="28" laneChangedFrom="0" laneChangedTo="0" flow="25.87"/>
=======
        <edge id="-1212504575" sampledSeconds="25.91" traveltime="1.64" overlapTraveltime="1.99" density="0.28" overlapDensity="0.34" laneDensity="0.14" occupancy="0.06" waitingTime="0.00" timeLoss="1.27" speed="13.01" speedRelative="0.94" departed="0" arrived="0" entered="13" left="13" laneChangedFrom="0" laneChangedTo="0" flow="12.97"/>
        <edge id="-1212506817#1" sampledSeconds="260.14" traveltime="1.95" overlapTraveltime="2.24" density="1.57" overlapDensity="1.80" laneDensity="0.78" occupancy="0.36" waitingTime="0.00" timeLoss="55.59" speed="19.93" speedRelative="0.72" departed="0" arrived="0" entered="116" left="116" laneChangedFrom="0" laneChangedTo="0" flow="112.38"/>
        <edge id="-1214459846" sampledSeconds="128.21" traveltime="6.06" overlapTraveltime="6.41" density="0.47" overlapDensity="0.50" laneDensity="0.47" occupancy="0.21" waitingTime="0.00" timeLoss="16.55" speed="11.92" speedRelative="0.86" departed="0" arrived="0" entered="20" left="20" laneChangedFrom="0" laneChangedTo="0" flow="20.10"/>
>>>>>>> 474b73e016da591880f557dd0ef53a9fb2d76c9e
        <edge id="-1234167260#0" sampledSeconds="0.00" departed="0" arrived="0" entered="0" left="0" laneChangedFrom="0" laneChangedTo="0"/>
        <edge id="-1234167260#1" sampledSeconds="0.00" departed="0" arrived="0" entered="0" left="0" laneChangedFrom="0" laneChangedTo="0"/>
        <edge id="-1234167261#0" sampledSeconds="0.00" departed="0" arrived="0" entered="0" left="0" laneChangedFrom="0" laneChangedTo="0"/>
        <edge id="-1234167261#1" sampledSeconds="0.00" departed="0" arrived="0" entered="0" left="0" laneChangedFrom="0" laneChangedTo="0"/>
        <edge id="-1234167261#2" sampledSeconds="0.00" departed="0" arrived="0" entered="0" left="0" laneChangedFrom="0" laneChangedTo="0"/>
        <edge id="-1234167261#3" sampledSeconds="0.00" departed="0" arrived="0" entered="0" left="0" laneChangedFrom="0" laneChangedTo="0"/>
        <edge id="-1234167262#0" sampledSeconds="0.00" departed="0" arrived="0" entered="0" left="0" laneChangedFrom="0" laneChangedTo="0"/>
        <edge id="-1234167262#1" sampledSeconds="0.00" departed="0" arrived="0" entered="0" left="0" laneChangedFrom="0" laneChangedTo="0"/>
        <edge id="-1234167263" sampledSeconds="0.00" departed="0" arrived="0" entered="0" left="0" laneChangedFrom="0" laneChangedTo="0"/>
        <edge id="-1234167264#0" sampledSeconds="0.00" departed="0" arrived="0" entered="0" left="0" laneChangedFrom="0" laneChangedTo="0"/>
        <edge id="-1234167264#1" sampledSeconds="0.00" departed="0" arrived="0" entered="0" left="0" laneChangedFrom="0" laneChangedTo="0"/>
        <edge id="-1234167265#0" sampledSeconds="0.00" departed="0" arrived="0" entered="0" left="0" laneChangedFrom="0" laneChangedTo="0"/>
        <edge id="-1234167265#1" sampledSeconds="0.00" departed="0" arrived="0" entered="0" left="0" laneChangedFrom="0" laneChangedTo="0"/>
        <edge id="-1234167266" sampledSeconds="0.00" departed="0" arrived="0" entered="0" left="0" laneChangedFrom="0" laneChangedTo="0"/>
        <edge id="-1234167267" sampledSeconds="0.00" departed="0" arrived="0" entered="0" left="0" laneChangedFrom="0" laneChangedTo="0"/>
        <edge id="-1234167268" sampledSeconds="0.00" departed="0" arrived="0" entered="0" left="0" laneChangedFrom="0" laneChangedTo="0"/>
<<<<<<< HEAD
        <edge id="-1272650816" sampledSeconds="34.70" traveltime="12.94" overlapTraveltime="13.85" density="0.07" overlapDensity="0.07" laneDensity="0.07" occupancy="0.03" waitingTime="0.00" timeLoss="5.88" speed="10.35" speedRelative="0.75" departed="1" arrived="2" entered="2" left="1" laneChangedFrom="0" laneChangedTo="0" flow="2.44"/>
        <edge id="-1272650818" sampledSeconds="172.83" traveltime="4.96" overlapTraveltime="6.97" density="0.77" overlapDensity="1.10" laneDensity="0.77" occupancy="0.46" waitingTime="22.00" timeLoss="75.60" speed="6.97" speedRelative="0.50" departed="6" arrived="1" entered="23" left="28" laneChangedFrom="0" laneChangedTo="0" flow="19.26"/>
        <edge id="-1274179998#0" sampledSeconds="129.14" traveltime="2.47" overlapTraveltime="3.60" density="1.34" overlapDensity="1.94" laneDensity="1.34" occupancy="0.74" waitingTime="9.00" timeLoss="57.40" speed="6.51" speedRelative="0.47" departed="3" arrived="3" entered="34" left="34" laneChangedFrom="0" laneChangedTo="0" flow="31.41"/>
        <edge id="-1275244963" sampledSeconds="103.75" traveltime="2.46" overlapTraveltime="3.65" density="1.74" overlapDensity="2.71" laneDensity="1.74" occupancy="1.01" waitingTime="7.00" timeLoss="59.20" speed="4.28" speedRelative="0.31" departed="6" arrived="0" entered="25" left="31" laneChangedFrom="0" laneChangedTo="0" flow="26.88"/>
=======
        <edge id="-1272650816" sampledSeconds="26.13" traveltime="12.83" overlapTraveltime="13.20" density="0.05" overlapDensity="0.05" laneDensity="0.05" occupancy="0.02" waitingTime="0.00" timeLoss="6.08" speed="10.83" speedRelative="0.78" departed="0" arrived="2" entered="2" left="0" laneChangedFrom="0" laneChangedTo="0" flow="2.01"/>
        <edge id="-1272650818" sampledSeconds="11.66" traveltime="4.86" overlapTraveltime="5.83" density="0.06" overlapDensity="0.07" laneDensity="0.06" occupancy="0.03" waitingTime="0.00" timeLoss="3.43" speed="8.24" speedRelative="0.59" departed="0" arrived="0" entered="2" left="2" laneChangedFrom="0" laneChangedTo="0" flow="1.84"/>
        <edge id="-1274179998#0" sampledSeconds="219.42" traveltime="2.50" overlapTraveltime="3.14" density="2.63" overlapDensity="3.30" laneDensity="2.63" occupancy="1.17" waitingTime="0.00" timeLoss="84.13" speed="7.32" speedRelative="0.53" departed="0" arrived="1" entered="70" left="69" laneChangedFrom="0" laneChangedTo="0" flow="69.40"/>
        <edge id="-1275244963" sampledSeconds="13.04" traveltime="1.94" overlapTraveltime="2.78" density="0.23" overlapDensity="0.34" laneDensity="0.23" occupancy="0.11" waitingTime="0.00" timeLoss="6.69" speed="5.45" speedRelative="0.39" departed="1" arrived="1" entered="4" left="4" laneChangedFrom="0" laneChangedTo="0" flow="4.55"/>
>>>>>>> 474b73e016da591880f557dd0ef53a9fb2d76c9e