<?xml version="1.0" encoding="UTF-8"?>

<!-- generated on 2026-02-18T17:50:53.577230+08:00 by Eclipse SUMO GUI 1.25.0
<sumoConfiguration xmlns:xsi="http://www.w3.org/2001/XMLSchema-instance" xsi:noNamespaceSchemaLocation="http://sumo.dlr.de/xsd/sumoConfiguration.xsd">

    <input>
        <net-file value="c:\Users\otaku\Documents\Thesis\apriori_civiq\scenarios/bgc_full/final_map.net.xml"/>
        <route-files value="c:\Users\otaku\Documents\Thesis\apriori_civiq\scenarios/bgc_full/wardrop_routes_highEnough.rou.xml"/>
        <additional-files value="c:\Users\otaku\Documents\Thesis\apriori_civiq\scenarios/bgc_full/osm.poly.xml.gz,c:\Users\otaku\Documents\Thesis\apriori_civiq\scenarios/bgc_full/output.add.xml,c:\Users\otaku\Documents\Thesis\apriori_civiq\scenarios/bgc_full/vtypes.add.xml"/>
    </input>

    <output>
        <summary-output value="c:\Users\otaku\Documents\Thesis\apriori_civiq\scenarios/bgc_full/data\summary_highEnough.xml"/>
        <tripinfo-output value="c:\Users\otaku\Documents\Thesis\apriori_civiq\scenarios/bgc_full/data\tripinfo_highEnough.xml"/>
        <statistic-output value="c:\Users\otaku\Documents\Thesis\apriori_civiq\scenarios/bgc_full/data\stats_highEnough.xml"/>
    </output>

    <time>
        <step-length value="1.0"/>
    </time>

    <processing>
        <ignore-route-errors value="true"/>
        <time-to-teleport value="-1"/>
        <tls.actuated.jam-threshold value="30"/>
    </processing>

    <routing>
        <device.rerouting.adaptation-steps value="18"/>
        <device.rerouting.adaptation-interval value="10"/>
    </routing>

    <report>
        <verbose value="true"/>
        <duration-log.statistics value="true"/>
        <no-step-log value="true"/>
    </report>

    <emissions>
        <device.emissions.probability value="1.0"/>
    </emissions>

    <traci_server>
        <remote-port value="61663"/>
    </traci_server>

    <gui_only>
        <gui-settings-file value="c:\Users\otaku\Documents\Thesis\apriori_civiq\scenarios/bgc_full/osm.view.xml"/>
        <start value="true"/>
    </gui_only>

</sumoConfiguration>
-->

<meandata xmlns:xsi="http://www.w3.org/2001/XMLSchema-instance" xsi:noNamespaceSchemaLocation="http://sumo.dlr.de/xsd/meandata_file.xsd">
    <interval begin="0.00" end="3600.00" id="wizard_example">
        <edge id="-1008051258#0" sampledSeconds="242.32" traveltime="3.57" overlapTraveltime="4.16" density="1.36" overlapDensity="1.58" laneDensity="1.36" occupancy="0.69" waitingTime="0.00" timeLoss="36.89" speed="11.42" speedRelative="0.82" departed="1" arrived="3" entered="58" left="56" laneChangedFrom="0" laneChangedTo="0" flow="55.76"/>
        <edge id="-1008051258#1" sampledSeconds="163.89" traveltime="2.13" overlapTraveltime="2.66" density="1.60" overlapDensity="1.99" laneDensity="1.60" occupancy="0.80" waitingTime="0.00" timeLoss="32.46" speed="10.46" speedRelative="0.75" departed="1" arrived="5" entered="61" left="57" laneChangedFrom="0" laneChangedTo="0" flow="60.15"/>
        <edge id="-1008051258#2" sampledSeconds="219.29" traveltime="2.82" overlapTraveltime="3.48" density="2.10" overlapDensity="2.59" laneDensity="2.10" occupancy="1.08" waitingTime="0.00" timeLoss="86.98" speed="8.19" speedRelative="0.59" departed="0" arrived="3" entered="63" left="60" laneChangedFrom="0" laneChangedTo="0" flow="61.81"/>
        <edge id="-1008051258#3" sampledSeconds="258.88" traveltime="2.67" overlapTraveltime="3.42" density="2.73" overlapDensity="3.49" laneDensity="2.73" occupancy="1.43" waitingTime="2.00" timeLoss="109.04" speed="7.49" speedRelative="0.54" departed="1" arrived="1" entered="75" left="75" laneChangedFrom="0" laneChangedTo="0" flow="73.61"/>
        <edge id="-1008051258#4" sampledSeconds="208.85" traveltime="2.72" overlapTraveltime="3.14" density="1.99" overlapDensity="2.31" laneDensity="1.99" occupancy="0.95" waitingTime="0.00" timeLoss="61.87" speed="9.59" speedRelative="0.69" departed="2" arrived="1" entered="65" left="66" laneChangedFrom="0" laneChangedTo="0" flow="68.67"/>
        <edge id="-1008051258#5" sampledSeconds="0.00" departed="0" arrived="0" entered="0" left="0" laneChangedFrom="0" laneChangedTo="0"/>
        <edge id="-101376482" sampledSeconds="0.00" departed="0" arrived="0" entered="0" left="0" laneChangedFrom="0" laneChangedTo="0"/>
        <edge id="-101376495#1" sampledSeconds="0.00" departed="0" arrived="0" entered="0" left="0" laneChangedFrom="0" laneChangedTo="0"/>
        <edge id="-101476579" sampledSeconds="935.31" traveltime="4.94" overlapTraveltime="5.77" density="6.20" overlapDensity="7.26" laneDensity="3.10" occupancy="1.57" waitingTime="0.00" timeLoss="167.83" speed="7.07" speedRelative="0.85" departed="0" arrived="3" entered="162" left="159" laneChangedFrom="0" laneChangedTo="0" flow="157.81"/>
        <edge id="-101476581" sampledSeconds="1.38" traveltime="1.45" overlapTraveltime="2.50" density="0.01" overlapDensity="0.06" laneDensity="0.01" occupancy="0.02" waitingTime="0.00" timeLoss="0.44" speed="4.77" speedRelative="0.34" departed="1" arrived="0" entered="0" left="1" laneChangedFrom="0" laneChangedTo="0" flow="0.23"/>
        <edge id="-1022486131#1" sampledSeconds="0.00" departed="0" arrived="0" entered="0" left="0" laneChangedFrom="0" laneChangedTo="0"/>
        <edge id="-1042494593#0" sampledSeconds="0.00" departed="0" arrived="0" entered="0" left="0" laneChangedFrom="0" laneChangedTo="0"/>
        <edge id="-104357790#0" sampledSeconds="0.00" departed="0" arrived="0" entered="0" left="0" laneChangedFrom="0" laneChangedTo="0"/>
        <edge id="-104357790#1" sampledSeconds="0.00" departed="0" arrived="0" entered="0" left="0" laneChangedFrom="0" laneChangedTo="0"/>
        <edge id="-1064374314#0" sampledSeconds="3.21" traveltime="2.85" overlapTraveltime="3.21" density="0.02" overlapDensity="0.02" laneDensity="0.02" occupancy="0.01" waitingTime="0.00" timeLoss="0.15" speed="14.21" speedRelative="1.02" departed="0" arrived="1" entered="1" left="0" laneChangedFrom="0" laneChangedTo="0" flow="1.00"/>
        <edge id="-1064374314#1" sampledSeconds="4.86" traveltime="4.49" overlapTraveltime="4.86" density="0.03" overlapDensity="0.04" laneDensity="0.03" occupancy="0.02" waitingTime="0.00" timeLoss="1.95" speed="8.91" speedRelative="0.64" departed="0" arrived="0" entered="1" left="1" laneChangedFrom="0" laneChangedTo="0" flow="1.04"/>
        <edge id="-1064386463" sampledSeconds="18.79" traveltime="5.89" overlapTraveltime="6.26" density="0.07" overlapDensity="0.08" laneDensity="0.07" occupancy="0.04" waitingTime="0.00" timeLoss="3.03" speed="11.61" speedRelative="0.84" departed="0" arrived="1" entered="3" left="2" laneChangedFrom="0" laneChangedTo="0" flow="3.03"/>
        <edge id="-1064386464" sampledSeconds="18.40" traveltime="3.38" overlapTraveltime="3.78" density="0.11" overlapDensity="0.12" laneDensity="0.11" occupancy="0.06" waitingTime="0.00" timeLoss="1.70" speed="12.25" speedRelative="0.88" departed="0" arrived="5" entered="5" left="0" laneChangedFrom="0" laneChangedTo="0" flow="5.01"/>
        <edge id="-1065726171#0" sampledSeconds="1097.13" traveltime="4.08" overlapTraveltime="4.81" density="8.88" overlapDensity="10.48" laneDensity="8.88" occupancy="4.48" waitingTime="0.00" timeLoss="144.43" speed="7.08" speedRelative="0.85" departed="3" arrived="7" entered="227" left="223" laneChangedFrom="0" laneChangedTo="0" flow="226.43"/>
        <edge id="-1065726171#1" sampledSeconds="2774.26" traveltime="5.41" overlapTraveltime="6.31" density="19.04" overlapDensity="22.21" laneDensity="19.04" occupancy="9.69" waitingTime="100.00" timeLoss="688.58" speed="6.29" speedRelative="0.75" departed="4" arrived="6" entered="437" left="435" laneChangedFrom="0" laneChangedTo="0" flow="430.90"/>
        <edge id="-1065726174" sampledSeconds="18.90" traveltime="6.14" overlapTraveltime="6.57" density="0.08" overlapDensity="0.08" laneDensity="0.08" occupancy="0.04" waitingTime="0.00" timeLoss="4.18" speed="10.44" speedRelative="0.75" departed="0" arrived="3" entered="3" left="0" laneChangedFrom="0" laneChangedTo="0" flow="3.02"/>
        <edge id="-1071486787" sampledSeconds="0.00" departed="0" arrived="0" entered="0" left="0" laneChangedFrom="0" laneChangedTo="0"/>
        <edge id="-1071486788" sampledSeconds="0.00" departed="0" arrived="0" entered="0" left="0" laneChangedFrom="0" laneChangedTo="0"/>
        <edge id="-1071486789" sampledSeconds="0.00" departed="0" arrived="0" entered="0" left="0" laneChangedFrom="0" laneChangedTo="0"/>
        <edge id="-1071787530" sampledSeconds="0.00" departed="0" arrived="0" entered="0" left="0" laneChangedFrom="0" laneChangedTo="0"/>
        <edge id="-1072138522" sampledSeconds="35.41" traveltime="5.16" overlapTraveltime="5.99" density="0.16" overlapDensity="0.18" laneDensity="0.16" occupancy="0.08" waitingTime="0.00" timeLoss="7.83" speed="10.04" speedRelative="0.72" departed="0" arrived="4" entered="6" left="2" laneChangedFrom="0" laneChangedTo="0" flow="5.63"/>
        <edge id="-1072143217" sampledSeconds="0.00" departed="0" arrived="0" entered="0" left="0" laneChangedFrom="0" laneChangedTo="0"/>
        <edge id="-1072176585" sampledSeconds="23.49" traveltime="2.85" overlapTraveltime="3.50" density="0.22" overlapDensity="0.26" laneDensity="0.22" occupancy="0.11" waitingTime="0.00" timeLoss="8.00" speed="8.55" speedRelative="0.62" departed="0" arrived="6" entered="7" left="1" laneChangedFrom="0" laneChangedTo="0" flow="6.83"/>
        <edge id="-1072192654" sampledSeconds="122.93" traveltime="2.48" overlapTraveltime="3.11" density="1.44" overlapDensity="1.80" laneDensity="1.44" occupancy="0.73" waitingTime="0.00" timeLoss="49.44" speed="7.69" speedRelative="0.55" departed="1" arrived="8" entered="39" left="32" laneChangedFrom="0" laneChangedTo="0" flow="39.98"/>
        <edge id="-1072192655" sampledSeconds="15.22" traveltime="1.39" overlapTraveltime="2.70" density="0.30" overlapDensity="0.55" laneDensity="0.15" occupancy="0.09" waitingTime="0.00" timeLoss="6.03" speed="4.72" speedRelative="0.34" departed="0" arrived="2" entered="6" left="4" laneChangedFrom="3" laneChangedTo="3" flow="5.09"/>
        <edge id="-1072192656" sampledSeconds="0.00" departed="0" arrived="0" entered="0" left="0" laneChangedFrom="0" laneChangedTo="0"/>
        <edge id="-1072192658" sampledSeconds="0.00" departed="0" arrived="0" entered="0" left="0" laneChangedFrom="0" laneChangedTo="0"/>
        <edge id="-1072192659#0" sampledSeconds="76.41" traveltime="2.16" overlapTraveltime="2.57" density="0.84" overlapDensity="1.00" laneDensity="0.84" occupancy="0.40" waitingTime="0.00" timeLoss="21.21" speed="10.19" speedRelative="0.73" departed="1" arrived="1" entered="29" left="29" laneChangedFrom="0" laneChangedTo="0" flow="30.89"/>
        <edge id="-1072977677" sampledSeconds="0.00" departed="0" arrived="0" entered="0" left="0" laneChangedFrom="0" laneChangedTo="0"/>
        <edge id="-1072992795" sampledSeconds="33.83" traveltime="3.24" overlapTraveltime="3.96" density="0.24" overlapDensity="0.29" laneDensity="0.24" occupancy="0.13" waitingTime="0.00" timeLoss="7.27" speed="9.44" speedRelative="0.68" departed="2" arrived="4" entered="7" left="5" laneChangedFrom="0" laneChangedTo="0" flow="8.09"/>
        <edge id="-1077777151" sampledSeconds="0.00" departed="0" arrived="0" entered="0" left="0" laneChangedFrom="0" laneChangedTo="0"/>
        <edge id="-1077777153" sampledSeconds="0.00" departed="0" arrived="0" entered="0" left="0" laneChangedFrom="0" laneChangedTo="0"/>
        <edge id="-1077777154" sampledSeconds="0.00" departed="0" arrived="0" entered="0" left="0" laneChangedFrom="0" laneChangedTo="0"/>
        <edge id="-1077793341#0" sampledSeconds="0.00" departed="0" arrived="0" entered="0" left="0" laneChangedFrom="0" laneChangedTo="0"/>
        <edge id="-1077807236" sampledSeconds="0.00" departed="0" arrived="0" entered="0" left="0" laneChangedFrom="0" laneChangedTo="0"/>
        <edge id="-1088170204" sampledSeconds="0.00" departed="0" arrived="0" entered="0" left="0" laneChangedFrom="0" laneChangedTo="0"/>
        <edge id="-1092255860" sampledSeconds="2589.78" traveltime="13.83" overlapTraveltime="14.89" density="10.12" overlapDensity="10.91" laneDensity="10.12" occupancy="5.07" waitingTime="0.00" timeLoss="369.43" speed="4.77" speedRelative="0.86" departed="6" arrived="0" entered="171" left="177" laneChangedFrom="0" laneChangedTo="0" flow="173.65"/>
        <edge id="-1120242622" sampledSeconds="0.00" departed="0" arrived="0" entered="0" left="0" laneChangedFrom="0" laneChangedTo="0"/>
        <edge id="-1154155306#1" sampledSeconds="0.00" departed="0" arrived="0" entered="0" left="0" laneChangedFrom="0" laneChangedTo="0"/>
        <edge id="-1154155307#1" sampledSeconds="0.00" departed="0" arrived="0" entered="0" left="0" laneChangedFrom="0" laneChangedTo="0"/>
        <edge id="-1156000158" sampledSeconds="0.00" departed="0" arrived="0" entered="0" left="0" laneChangedFrom="0" laneChangedTo="0"/>
        <edge id="-1212504575" sampledSeconds="10721.52" traveltime="52.84" overlapTraveltime="79.21" density="92.91" overlapDensity="139.04" laneDensity="46.46" occupancy="32.38" waitingTime="10428.00" timeLoss="10461.90" speed="0.33" speedRelative="0.02" departed="4" arrived="0" entered="136" left="136" laneChangedFrom="0" laneChangedTo="0" flow="111.56"/>
        <edge id="-1212506817#1" sampledSeconds="14005.53" traveltime="46.79" overlapTraveltime="47.51" density="95.56" overlapDensity="96.80" laneDensity="47.78" occupancy="22.76" waitingTime="13006.00" timeLoss="13428.03" speed="0.95" speedRelative="0.03" departed="4" arrived="3" entered="298" left="289" laneChangedFrom="0" laneChangedTo="0" flow="327.20"/>
        <edge id="-1214459846" sampledSeconds="174.52" traveltime="6.44" overlapTraveltime="6.80" density="0.63" overlapDensity="0.67" laneDensity="0.63" occupancy="0.31" waitingTime="0.00" timeLoss="38.79" speed="11.32" speedRelative="0.81" departed="3" arrived="0" entered="25" left="28" laneChangedFrom="0" laneChangedTo="0" flow="25.87"/>
        <edge id="-1234167260#0" sampledSeconds="0.00" departed="0" arrived="0" entered="0" left="0" laneChangedFrom="0" laneChangedTo="0"/>
        <edge id="-1234167260#1" sampledSeconds="0.00" departed="0" arrived="0" entered="0" left="0" laneChangedFrom="0" laneChangedTo="0"/>
        <edge id="-1234167261#0" sampledSeconds="0.00" departed="0" arrived="0" entered="0" left="0" laneChangedFrom="0" laneChangedTo="0"/>
        <edge id="-1234167261#1" sampledSeconds="0.00" departed="0" arrived="0" entered="0" left="0" laneChangedFrom="0" laneChangedTo="0"/>
        <edge id="-1234167261#2" sampledSeconds="0.00" departed="0" arrived="0" entered="0" left="0" laneChangedFrom="0" laneChangedTo="0"/>
        <edge id="-1234167261#3" sampledSeconds="0.00" departed="0" arrived="0" entered="0" left="0" laneChangedFrom="0" laneChangedTo="0"/>
        <edge id="-1234167262#0" sampledSeconds="0.00" departed="0" arrived="0" entered="0" left="0" laneChangedFrom="0" laneChangedTo="0"/>
        <edge id="-1234167262#1" sampledSeconds="0.00" departed="0" arrived="0" entered="0" left="0" laneChangedFrom="0" laneChangedTo="0"/>
        <edge id="-1234167263" sampledSeconds="0.00" departed="0" arrived="0" entered="0" left="0" laneChangedFrom="0" laneChangedTo="0"/>
        <edge id="-1234167264#0" sampledSeconds="0.00" departed="0" arrived="0" entered="0" left="0" laneChangedFrom="0" laneChangedTo="0"/>
        <edge id="-1234167264#1" sampledSeconds="0.00" departed="0" arrived="0" entered="0" left="0" laneChangedFrom="0" laneChangedTo="0"/>
        <edge id="-1234167265#0" sampledSeconds="0.00" departed="0" arrived="0" entered="0" left="0" laneChangedFrom="0" laneChangedTo="0"/>
        <edge id="-1234167265#1" sampledSeconds="0.00" departed="0" arrived="0" entered="0" left="0" laneChangedFrom="0" laneChangedTo="0"/>
        <edge id="-1234167266" sampledSeconds="0.00" departed="0" arrived="0" entered="0" left="0" laneChangedFrom="0" laneChangedTo="0"/>
        <edge id="-1234167267" sampledSeconds="0.00" departed="0" arrived="0" entered="0" left="0" laneChangedFrom="0" laneChangedTo="0"/>
        <edge id="-1234167268" sampledSeconds="0.00" departed="0" arrived="0" entered="0" left="0" laneChangedFrom="0" laneChangedTo="0"/>
        <edge id="-1272650816" sampledSeconds="34.70" traveltime="12.94" overlapTraveltime="13.85" density="0.07" overlapDensity="0.07" laneDensity="0.07" occupancy="0.03" waitingTime="0.00" timeLoss="5.88" speed="10.35" speedRelative="0.75" departed="1" arrived="2" entered="2" left="1" laneChangedFrom="0" laneChangedTo="0" flow="2.44"/>
        <edge id="-1272650818" sampledSeconds="172.83" traveltime="4.96" overlapTraveltime="6.97" density="0.77" overlapDensity="1.10" laneDensity="0.77" occupancy="0.46" waitingTime="22.00" timeLoss="75.60" speed="6.97" speedRelative="0.50" departed="6" arrived="1" entered="23" left="28" laneChangedFrom="0" laneChangedTo="0" flow="19.26"/>
        <edge id="-1274179998#0" sampledSeconds="129.14" traveltime="2.47" overlapTraveltime="3.60" density="1.34" overlapDensity="1.94" laneDensity="1.34" occupancy="0.74" waitingTime="9.00" timeLoss="57.40" speed="6.51" speedRelative="0.47" departed="3" arrived="3" entered="34" left="34" laneChangedFrom="0" laneChangedTo="0" flow="31.41"/>
        <edge id="-1275244963" sampledSeconds="103.75" traveltime="2.46" overlapTraveltime="3.65" density="1.74" overlapDensity="2.71" laneDensity="1.74" occupancy="1.01" waitingTime="7.00" timeLoss="59.20" speed="4.28" speedRelative="0.31" departed="6" arrived="0" entered="25" left="31" laneChangedFrom="0" laneChangedTo="0" flow="26.88"/>
        <edge id="-1278348712" sampledSeconds="0.00" departed="0" arrived="0" entered="0" left="0" laneChangedFrom="0" laneChangedTo="0"/>
        <edge id="-1278357471#1" sampledSeconds="0.00" departed="0" arrived="0" entered="0" left="0" laneChangedFrom="0" laneChangedTo="0"/>
        <edge id="-1278358006" sampledSeconds="0.00" departed="0" arrived="0" entered="0" left="0" laneChangedFrom="0" laneChangedTo="0"/>
        <edge id="-1278364486" sampledSeconds="0.00" departed="0" arrived="0" entered="0" left="0" laneChangedFrom="0" laneChangedTo="0"/>
        <edge id="-1278367502" sampledSeconds="0.00" departed="0" arrived="0" entered="0" left="0" laneChangedFrom="0" laneChangedTo="0"/>
        <edge id="-1278367504#0" sampledSeconds="0.00" departed="0" arrived="0" entered="0" left="0" laneChangedFrom="0" laneChangedTo="0"/>
        <edge id="-1278370290#1" sampledSeconds="0.00" departed="0" arrived="0" entered="0" left="0" laneChangedFrom="0" laneChangedTo="0"/>
        <edge id="-1278370872" sampledSeconds="0.00" departed="0" arrived="0" entered="0" left="0" laneChangedFrom="0" laneChangedTo="0"/>
        <edge id="-1278654471" sampledSeconds="0.00" departed="0" arrived="0" entered="0" left="0" laneChangedFrom="0" laneChangedTo="0"/>
        <edge id="-1278654478" sampledSeconds="0.00" departed="0" arrived="0" entered="0" left="0" laneChangedFrom="0" laneChangedTo="0"/>
        <edge id="-1278654480" sampledSeconds="0.00" departed="0" arrived="0" entered="0" left="0" laneChangedFrom="0" laneChangedTo="0"/>
        <edge id="-1278654481" sampledSeconds="0.00" departed="0" arrived="0" entered="0" left="0" laneChangedFrom="0" laneChangedTo="0"/>
        <edge id="-1278654482#0" sampledSeconds="0.00" departed="0" arrived="0" entered="0" left="0" laneChangedFrom="0" laneChangedTo="0"/>
        <edge id="-1278655004" sampledSeconds="22.00" traveltime="6.95" overlapTraveltime="8.00" density="0.18" overlapDensity="0.19" laneDensity="0.18" occupancy="0.09" waitingTime="0.00" timeLoss="3.04" speed="4.70" speedRelative="0.85" departed="0" arrived="3" entered="3" left="0" laneChangedFrom="0" laneChangedTo="0" flow="3.01"/>
        <edge id="-1278655005#0" sampledSeconds="0.00" departed="0" arrived="0" entered="0" left="0" laneChangedFrom="0" laneChangedTo="0"/>
        <edge id="-1278683562" sampledSeconds="0.00" departed="0" arrived="0" entered="0" left="0" laneChangedFrom="0" laneChangedTo="0"/>
        <edge id="-1278683566#0" sampledSeconds="0.00" departed="0" arrived="0" entered="0" left="0" laneChangedFrom="0" laneChangedTo="0"/>
        <edge id="-1278683566#1" sampledSeconds="0.00" departed="0" arrived="0" entered="0" left="0" laneChangedFrom="0" laneChangedTo="0"/>
        <edge id="-1278683567" sampledSeconds="0.00" departed="0" arrived="0" entered="0" left="0" laneChangedFrom="0" laneChangedTo="0"/>
        <edge id="-1278761801#0" sampledSeconds="0.00" departed="0" arrived="0" entered="0" left="0" laneChangedFrom="0" laneChangedTo="0"/>
        <edge id="-1278955670" sampledSeconds="0.00" departed="0" arrived="0" entered="0" left="0" laneChangedFrom="0" laneChangedTo="0"/>
        <edge id="-1279260094" sampledSeconds="0.00" departed="0" arrived="0" entered="0" left="0" laneChangedFrom="0" laneChangedTo="0"/>
        <edge id="-1279681436#0" sampledSeconds="41.23" traveltime="3.29" overlapTraveltime="5.11" density="0.30" overlapDensity="0.51" laneDensity="0.30" occupancy="0.20" waitingTime="0.00" timeLoss="14.70" speed="5.37" speedRelative="0.39" departed="8" arrived="2" entered="3" left="9" laneChangedFrom="0" laneChangedTo="0" flow="5.85"/>
        <edge id="-1279681437#0" sampledSeconds="0.00" departed="0" arrived="0" entered="0" left="0" laneChangedFrom="0" laneChangedTo="0"/>
        <edge id="-1279681438" sampledSeconds="0.00" departed="0" arrived="0" entered="0" left="0" laneChangedFrom="0" laneChangedTo="0"/>
        <edge id="-1279810235#0" sampledSeconds="0.00" departed="0" arrived="0" entered="0" left="0" laneChangedFrom="0" laneChangedTo="0"/>
        <edge id="-1279810236#0" sampledSeconds="0.00" departed="0" arrived="0" entered="0" left="0" laneChangedFrom="0" laneChangedTo="0"/>
        <edge id="-1279810237#0" sampledSeconds="0.00" departed="0" arrived="0" entered="0" left="0" laneChangedFrom="0" laneChangedTo="0"/>
        <edge id="-1279810242#0" sampledSeconds="0.00" departed="0" arrived="0" entered="0" left="0" laneChangedFrom="0" laneChangedTo="0"/>
        <edge id="-1279814597#0" sampledSeconds="0.00" departed="0" arrived="0" entered="0" left="0" laneChangedFrom="0" laneChangedTo="0"/>
        <edge id="-1279814598#1" sampledSeconds="0.00" departed="0" arrived="0" entered="0" left="0" laneChangedFrom="0" laneChangedTo="0"/>
        <edge id="-1279816417" sampledSeconds="21000.68" traveltime="58.30" overlapTraveltime="59.35" density="80.75" overlapDensity="82.06" laneDensity="40.37" occupancy="20.23" waitingTime="17629.00" timeLoss="19917.51" speed="1.28" speedRelative="0.05" departed="4" arrived="1" entered="360" left="345" laneChangedFrom="216" laneChangedTo="216" flow="372.67"/>
        <edge id="-1280058649#0" sampledSeconds="0.00" departed="0" arrived="0" entered="0" left="0" laneChangedFrom="0" laneChangedTo="0"/>
        <edge id="-1280060617#1" sampledSeconds="0.00" departed="0" arrived="0" entered="0" left="0" laneChangedFrom="0" laneChangedTo="0"/>
        <edge id="-1280060618" sampledSeconds="0.00" departed="0" arrived="0" entered="0" left="0" laneChangedFrom="0" laneChangedTo="0"/>
        <edge id="-1280073311" sampledSeconds="0.00" departed="0" arrived="0" entered="0" left="0" laneChangedFrom="0" laneChangedTo="0"/>
        <edge id="-1280079384" sampledSeconds="0.00" departed="0" arrived="0" entered="0" left="0" laneChangedFrom="0" laneChangedTo="0"/>
        <edge id="-1280079385#0" sampledSeconds="0.00" departed="0" arrived="0" entered="0" left="0" laneChangedFrom="0" laneChangedTo="0"/>
        <edge id="-1280079388#1" sampledSeconds="14042.32" traveltime="66.96" overlapTraveltime="68.32" density="149.72" overlapDensity="152.55" laneDensity="74.86" occupancy="34.68" waitingTime="12655.00" timeLoss="13568.41" speed="0.45" speedRelative="0.03" departed="2" arrived="0" entered="208" left="204" laneChangedFrom="47" laneChangedTo="47" flow="241.18"/>
        <edge id="-1280084164" sampledSeconds="0.00" departed="0" arrived="0" entered="0" left="0" laneChangedFrom="0" laneChangedTo="0"/>
        <edge id="-1280084165#0" sampledSeconds="0.00" departed="0" arrived="0" entered="0" left="0" laneChangedFrom="0" laneChangedTo="0"/>
        <edge id="-1280084165#1" sampledSeconds="0.00" departed="0" arrived="0" entered="0" left="0" laneChangedFrom="0" laneChangedTo="0"/>
        <edge id="-1280084168#0" sampledSeconds="0.00" departed="0" arrived="0" entered="0" left="0" laneChangedFrom="0" laneChangedTo="0"/>
        <edge id="-1280084173#0" sampledSeconds="0.00" departed="0" arrived="0" entered="0" left="0" laneChangedFrom="0" laneChangedTo="0"/>
        <edge id="-1280084174#1" sampledSeconds="0.00" departed="0" arrived="0" entered="0" left="0" laneChangedFrom="0" laneChangedTo="0"/>
        <edge id="-1280086013" sampledSeconds="516.51" traveltime="6.21" overlapTraveltime="16.50" density="2.37" overlapDensity="6.37" laneDensity="2.37" occupancy="2.69" waitingTime="346.00" timeLoss="442.29" speed="1.67" speedRelative="0.12" departed="5" arrived="0" entered="28" left="33" laneChangedFrom="0" laneChangedTo="0" flow="14.24"/>
        <edge id="-1280828148" sampledSeconds="0.00" departed="0" arrived="0" entered="0" left="0" laneChangedFrom="0" laneChangedTo="0"/>
        <edge id="-1281348522" sampledSeconds="0.00" departed="0" arrived="0" entered="0" left="0" laneChangedFrom="0" laneChangedTo="0"/>
        <edge id="-1281884999" sampledSeconds="1.84" traveltime="1.70" overlapTraveltime="2.16" density="0.03" overlapDensity="0.03" laneDensity="0.03" occupancy="0.01" waitingTime="0.00" timeLoss="0.42" speed="10.49" speedRelative="0.76" departed="0" arrived="1" entered="1" left="0" laneChangedFrom="0" laneChangedTo="0" flow="1.01"/>
        <edge id="-1288391059" sampledSeconds="0.00" departed="0" arrived="0" entered="0" left="0" laneChangedFrom="0" laneChangedTo="0"/>
        <edge id="-1288410664" sampledSeconds="102.81" traveltime="3.73" overlapTraveltime="4.50" density="0.56" overlapDensity="0.68" laneDensity="0.56" occupancy="0.29" waitingTime="0.00" timeLoss="15.33" speed="10.48" speedRelative="0.75" departed="1" arrived="3" entered="22" left="20" laneChangedFrom="0" laneChangedTo="0" flow="21.13"/>
        <edge id="-1288410665" sampledSeconds="0.00" departed="0" arrived="0" entered="0" left="0" laneChangedFrom="0" laneChangedTo="0"/>
        <edge id="-1289152445" sampledSeconds="390.81" traveltime="7.99" overlapTraveltime="8.84" density="1.22" overlapDensity="1.35" laneDensity="1.22" occupancy="0.62" waitingTime="25.00" timeLoss="97.74" speed="9.65" speedRelative="0.70" departed="4" arrived="1" entered="43" left="45" laneChangedFrom="0" laneChangedTo="0" flow="42.38"/>
        <edge id="-1289152448" sampledSeconds="81.29" traveltime="5.20" overlapTraveltime="6.29" density="0.46" overlapDensity="0.57" laneDensity="0.46" occupancy="0.24" waitingTime="0.00" timeLoss="38.13" speed="7.12" speedRelative="0.51" departed="5" arrived="5" entered="10" left="10" laneChangedFrom="0" laneChangedTo="0" flow="11.79"/>
        <edge id="-1289152449" sampledSeconds="52.69" traveltime="4.58" overlapTraveltime="5.56" density="0.25" overlapDensity="0.31" laneDensity="0.25" occupancy="0.13" waitingTime="0.00" timeLoss="10.07" speed="9.41" speedRelative="0.68" departed="5" arrived="2" entered="7" left="10" laneChangedFrom="0" laneChangedTo="0" flow="8.40"/>
        <edge id="-1289152450#0" sampledSeconds="121.59" traveltime="6.32" overlapTraveltime="7.27" density="0.44" overlapDensity="0.51" laneDensity="0.44" occupancy="0.23" waitingTime="0.00" timeLoss="26.98" speed="9.79" speedRelative="0.71" departed="5" arrived="3" entered="14" left="16" laneChangedFrom="0" laneChangedTo="0" flow="15.60"/>
        <edge id="-1289152450#1" sampledSeconds="1021.90" traveltime="0.39" overlapTraveltime="39.38" density="1.27" overlapDensity="125.60" laneDensity="1.27" occupancy="28.13" waitingTime="992.00" timeLoss="1001.82" speed="0.18" speedRelative="0.01" departed="1" arrived="1" entered="26" left="26" laneChangedFrom="0" laneChangedTo="0" flow="0.85"/>
        <edge id="-1291554831" sampledSeconds="81.81" traveltime="3.00" overlapTraveltime="4.05" density="1.23" overlapDensity="1.68" laneDensity="1.23" occupancy="0.65" waitingTime="14.00" timeLoss="40.17" speed="4.57" speedRelative="0.33" departed="2" arrived="2" entered="19" left="19" laneChangedFrom="0" laneChangedTo="0" flow="20.27"/>
        <edge id="-1291573302" sampledSeconds="1222.70" traveltime="133.75" overlapTraveltime="134.68" density="2.84" overlapDensity="2.86" laneDensity="2.84" occupancy="1.42" waitingTime="1110.00" timeLoss="1136.28" speed="0.92" speedRelative="0.07" departed="4" arrived="0" entered="6" left="9" laneChangedFrom="0" laneChangedTo="0" flow="9.40"/>
        <edge id="-1291931391" sampledSeconds="332.17" traveltime="3.78" overlapTraveltime="4.75" density="7.74" overlapDensity="9.71" laneDensity="7.74" occupancy="3.61" waitingTime="109.00" timeLoss="233.14" speed="3.05" speedRelative="0.22" departed="0" arrived="3" entered="70" left="67" laneChangedFrom="0" laneChangedTo="0" flow="85.06"/>
        <edge id="-1292162268#1" sampledSeconds="483.41" traveltime="7.14" overlapTraveltime="12.35" density="4.91" overlapDensity="8.58" laneDensity="2.45" occupancy="1.59" waitingTime="336.00" timeLoss="392.90" speed="1.67" speedRelative="0.15" departed="7" arrived="2" entered="36" left="39" laneChangedFrom="0" laneChangedTo="0" flow="29.56"/>
        <edge id="-1292162270" sampledSeconds="0.00" departed="0" arrived="0" entered="0" left="0" laneChangedFrom="0" laneChangedTo="0"/>
        <edge id="-1292162271" sampledSeconds="44.82" traveltime="1.04" overlapTraveltime="1.52" density="0.80" overlapDensity="1.18" laneDensity="0.40" occupancy="0.20" waitingTime="0.00" timeLoss="3.78" speed="10.23" speedRelative="0.92" departed="4" arrived="4" entered="28" left="28" laneChangedFrom="0" laneChangedTo="0" flow="29.44"/>