<?xml version="1.0" encoding="UTF-8"?>

<!-- generated on 2026-01-19T17:21:11.410326+08:00 by Eclipse SUMO GUI 1.25.0
<sumoConfiguration xmlns:xsi="http://www.w3.org/2001/XMLSchema-instance" xsi:noNamespaceSchemaLocation="http://sumo.dlr.de/xsd/sumoConfiguration.xsd">

    <input>
        <net-file value="final_map.net.xml"/>
        <route-files value="trips_low.xml"/>
        <additional-files value="osm.poly.xml.gz,output.add.xml,vtypes.add.xml"/>
    </input>

    <output>
        <summary-output value="data\data_selfish_low_summary.xml"/>
        <tripinfo-output value="data\data_selfish_low_tripinfo.xml"/>
        <statistic-output value="data\data_selfish_low_stats.xml"/>
    </output>

    <processing>
        <ignore-route-errors value="true"/>
        <time-to-teleport value="300"/>
        <tls.actuated.jam-threshold value="30"/>
    </processing>

    <routing>
        <device.rerouting.adaptation-steps value="18"/>
        <device.rerouting.adaptation-interval value="10"/>
    </routing>

    <report>
        <verbose value="true"/>
        <duration-log.statistics value="true"/>
        <no-step-log value="true"/>
    </report>

    <emissions>
        <device.emissions.probability value="1.0"/>
    </emissions>

    <gui_only>
        <gui-settings-file value="osm.view.xml"/>
    </gui_only>

</sumoConfiguration>
-->

<meandata xmlns:xsi="http://www.w3.org/2001/XMLSchema-instance" xsi:noNamespaceSchemaLocation="http://sumo.dlr.de/xsd/meandata_file.xsd">
    <interval begin="0.00" end="1499.00" id="wizard_example">
        <edge id="-1008051258#0" sampledSeconds="50.66" traveltime="3.44" overlapTraveltime="3.90" density="0.70" overlapDensity="0.80" laneDensity="0.70" occupancy="0.32" waitingTime="0.00" timeLoss="6.47" speed="12.06" speedRelative="0.87" departed="0" arrived="0" entered="13" left="13" laneChangedFrom="0" laneChangedTo="0" flow="30.49"/>
        <edge id="-1008051258#1" sampledSeconds="23.71" traveltime="1.83" overlapTraveltime="2.16" density="0.59" overlapDensity="0.69" laneDensity="0.59" occupancy="0.26" waitingTime="0.00" timeLoss="2.65" speed="12.70" speedRelative="0.91" departed="0" arrived="0" entered="11" left="11" laneChangedFrom="0" laneChangedTo="0" flow="26.81"/>
        <edge id="-1008051258#2" sampledSeconds="52.94" traveltime="2.90" overlapTraveltime="3.53" density="1.23" overlapDensity="1.50" laneDensity="1.23" occupancy="0.57" waitingTime="0.00" timeLoss="21.58" speed="7.93" speedRelative="0.57" departed="0" arrived="0" entered="15" left="15" laneChangedFrom="0" laneChangedTo="0" flow="35.23"/>
        <edge id="-1008051258#3" sampledSeconds="51.81" traveltime="2.61" overlapTraveltime="3.24" density="1.35" overlapDensity="1.68" laneDensity="1.35" occupancy="0.63" waitingTime="0.00" timeLoss="22.36" speed="7.75" speedRelative="0.56" departed="0" arrived="0" entered="16" left="16" laneChangedFrom="0" laneChangedTo="0" flow="37.69"/>
        <edge id="-1008051258#4" sampledSeconds="49.13" traveltime="2.64" overlapTraveltime="3.07" density="1.12" overlapDensity="1.30" laneDensity="1.12" occupancy="0.49" waitingTime="0.00" timeLoss="14.22" speed="9.66" speedRelative="0.70" departed="0" arrived="0" entered="16" left="16" laneChangedFrom="0" laneChangedTo="0" flow="38.96"/>
        <edge id="-1008051258#5" sampledSeconds="4.86" traveltime="5.27" overlapTraveltime="5.69" density="0.11" overlapDensity="0.12" laneDensity="0.11" occupancy="0.05" waitingTime="0.00" timeLoss="2.74" speed="5.54" speedRelative="0.40" departed="1" arrived="0" entered="0" left="1" laneChangedFrom="0" laneChangedTo="0" flow="2.15"/>
        <edge id="-101376482" sampledSeconds="0.00" departed="0" arrived="0" entered="0" left="0" laneChangedFrom="0" laneChangedTo="0"/>
        <edge id="-101376495#1" sampledSeconds="0.00" departed="0" arrived="0" entered="0" left="0" laneChangedFrom="0" laneChangedTo="0"/>
        <edge id="-101476579" sampledSeconds="98.04" traveltime="4.74" overlapTraveltime="5.45" density="1.59" overlapDensity="1.83" laneDensity="0.80" occupancy="0.36" waitingTime="0.00" timeLoss="11.95" speed="7.40" speedRelative="0.89" departed="0" arrived="0" entered="18" left="18" laneChangedFrom="0" laneChangedTo="0" flow="42.37"/>
        <edge id="-101476581" sampledSeconds="4.92" traveltime="3.74" overlapTraveltime="4.12" density="0.24" overlapDensity="0.47" laneDensity="0.24" occupancy="0.17" waitingTime="0.00" timeLoss="3.06" speed="2.77" speedRelative="0.20" departed="2" arrived="0" entered="0" left="2" laneChangedFrom="0" laneChangedTo="0" flow="2.41"/>
        <edge id="-1022486131#1" sampledSeconds="0.00" departed="0" arrived="0" entered="0" left="0" laneChangedFrom="0" laneChangedTo="0"/>
        <edge id="-1042494593#0" sampledSeconds="0.00" departed="0" arrived="0" entered="0" left="0" laneChangedFrom="0" laneChangedTo="0"/>
        <edge id="-104357790#0" sampledSeconds="0.00" departed="0" arrived="0" entered="0" left="0" laneChangedFrom="0" laneChangedTo="0"/>
        <edge id="-104357790#1" sampledSeconds="0.00" departed="0" arrived="0" entered="0" left="0" laneChangedFrom="0" laneChangedTo="0"/>
        <edge id="-1064374314#0" sampledSeconds="0.00" departed="0" arrived="0" entered="0" left="0" laneChangedFrom="0" laneChangedTo="0"/>
        <edge id="-1064374314#1" sampledSeconds="0.00" departed="0" arrived="0" entered="0" left="0" laneChangedFrom="0" laneChangedTo="0"/>
        <edge id="-1064386463" sampledSeconds="0.00" departed="0" arrived="0" entered="0" left="0" laneChangedFrom="0" laneChangedTo="0"/>
        <edge id="-1064386464" sampledSeconds="16.27" traveltime="3.80" overlapTraveltime="4.15" density="0.25" overlapDensity="0.26" laneDensity="0.25" occupancy="0.11" waitingTime="0.00" timeLoss="3.20" speed="11.03" speedRelative="0.79" departed="0" arrived="4" entered="4" left="0" laneChangedFrom="0" laneChangedTo="0" flow="9.74"/>
        <edge id="-1065726171#0" sampledSeconds="31.36" traveltime="3.84" overlapTraveltime="4.48" density="0.62" overlapDensity="0.72" laneDensity="0.62" occupancy="0.28" waitingTime="0.00" timeLoss="2.78" speed="7.50" speedRelative="0.90" departed="0" arrived="0" entered="7" left="7" laneChangedFrom="0" laneChangedTo="0" flow="16.64"/>
        <edge id="-1065726171#1" sampledSeconds="380.82" traveltime="4.98" overlapTraveltime="5.77" density="6.32" overlapDensity="7.32" laneDensity="6.32" occupancy="2.90" waitingTime="2.00" timeLoss="79.29" speed="6.79" speedRelative="0.82" departed="0" arrived="0" entered="66" left="66" laneChangedFrom="0" laneChangedTo="0" flow="154.61"/>
        <edge id="-1065726174" sampledSeconds="12.68" traveltime="6.07" overlapTraveltime="6.43" density="0.13" overlapDensity="0.13" laneDensity="0.13" occupancy="0.06" waitingTime="0.00" timeLoss="2.81" speed="10.59" speedRelative="0.76" departed="0" arrived="2" entered="2" left="0" laneChangedFrom="0" laneChangedTo="0" flow="4.85"/>
        <edge id="-1071486787" sampledSeconds="0.00" departed="0" arrived="0" entered="0" left="0" laneChangedFrom="0" laneChangedTo="0"/>
        <edge id="-1071486788" sampledSeconds="0.00" departed="0" arrived="0" entered="0" left="0" laneChangedFrom="0" laneChangedTo="0"/>
        <edge id="-1071486789" sampledSeconds="0.00" departed="0" arrived="0" entered="0" left="0" laneChangedFrom="0" laneChangedTo="0"/>
        <edge id="-1071787530" sampledSeconds="0.00" departed="0" arrived="0" entered="0" left="0" laneChangedFrom="0" laneChangedTo="0"/>
        <edge id="-1072138522" sampledSeconds="9.91" traveltime="4.66" overlapTraveltime="4.96" density="0.11" overlapDensity="0.12" laneDensity="0.11" occupancy="0.05" waitingTime="0.00" timeLoss="2.07" speed="12.03" speedRelative="0.87" departed="0" arrived="2" entered="2" left="0" laneChangedFrom="0" laneChangedTo="0" flow="4.88"/>
        <edge id="-1072143217" sampledSeconds="0.00" departed="0" arrived="0" entered="0" left="0" laneChangedFrom="0" laneChangedTo="0"/>
        <edge id="-1072176585" sampledSeconds="11.82" traveltime="2.68" overlapTraveltime="3.08" density="0.29" overlapDensity="0.32" laneDensity="0.29" occupancy="0.12" waitingTime="0.00" timeLoss="3.74" speed="9.54" speedRelative="0.69" departed="0" arrived="4" entered="4" left="0" laneChangedFrom="0" laneChangedTo="0" flow="9.87"/>
        <edge id="-1072192654" sampledSeconds="16.13" traveltime="2.68" overlapTraveltime="3.36" density="0.47" overlapDensity="0.57" laneDensity="0.47" occupancy="0.21" waitingTime="0.00" timeLoss="7.45" speed="6.99" speedRelative="0.50" departed="0" arrived="1" entered="5" left="4" laneChangedFrom="0" laneChangedTo="0" flow="11.87"/>
        <edge id="-1072192655" sampledSeconds="0.00" departed="0" arrived="0" entered="0" left="0" laneChangedFrom="0" laneChangedTo="0"/>
        <edge id="-1072192656" sampledSeconds="0.00" departed="0" arrived="0" entered="0" left="0" laneChangedFrom="0" laneChangedTo="0"/>
        <edge id="-1072192658" sampledSeconds="0.00" departed="0" arrived="0" entered="0" left="0" laneChangedFrom="0" laneChangedTo="0"/>
        <edge id="-1072192659#0" sampledSeconds="5.60" traveltime="1.53" overlapTraveltime="1.87" density="0.14" overlapDensity="0.18" laneDensity="0.14" occupancy="0.07" waitingTime="0.00" timeLoss="0.31" speed="13.76" speedRelative="0.99" departed="0" arrived="0" entered="3" left="3" laneChangedFrom="0" laneChangedTo="0" flow="7.15"/>
        <edge id="-1072977677" sampledSeconds="0.00" departed="0" arrived="0" entered="0" left="0" laneChangedFrom="0" laneChangedTo="0"/>
        <edge id="-1072992795" sampledSeconds="8.39" traveltime="4.06" overlapTraveltime="4.59" density="0.16" overlapDensity="0.17" laneDensity="0.16" occupancy="0.07" waitingTime="0.00" timeLoss="3.30" speed="8.04" speedRelative="0.58" departed="1" arrived="1" entered="1" left="1" laneChangedFrom="0" laneChangedTo="0" flow="4.49"/>
        <edge id="-1077777151" sampledSeconds="0.00" departed="0" arrived="0" entered="0" left="0" laneChangedFrom="0" laneChangedTo="0"/>
        <edge id="-1077777153" sampledSeconds="0.00" departed="0" arrived="0" entered="0" left="0" laneChangedFrom="0" laneChangedTo="0"/>
        <edge id="-1077777154" sampledSeconds="0.00" departed="0" arrived="0" entered="0" left="0" laneChangedFrom="0" laneChangedTo="0"/>
        <edge id="-1077793341#0" sampledSeconds="0.00" departed="0" arrived="0" entered="0" left="0" laneChangedFrom="0" laneChangedTo="0"/>
        <edge id="-1077807236" sampledSeconds="0.00" departed="0" arrived="0" entered="0" left="0" laneChangedFrom="0" laneChangedTo="0"/>
        <edge id="-1088170204" sampledSeconds="0.00" departed="0" arrived="0" entered="0" left="0" laneChangedFrom="0" laneChangedTo="0"/>
        <edge id="-1092255860" sampledSeconds="314.02" traveltime="13.38" overlapTraveltime="14.27" density="2.98" overlapDensity="3.18" laneDensity="2.98" occupancy="1.34" waitingTime="0.00" timeLoss="37.23" speed="4.93" speedRelative="0.89" departed="0" arrived="0" entered="22" left="22" laneChangedFrom="0" laneChangedTo="0" flow="52.92"/>
        <edge id="-1120242622" sampledSeconds="0.00" departed="0" arrived="0" entered="0" left="0" laneChangedFrom="0" laneChangedTo="0"/>
        <edge id="-1154155306#1" sampledSeconds="0.00" departed="0" arrived="0" entered="0" left="0" laneChangedFrom="0" laneChangedTo="0"/>
        <edge id="-1154155307#1" sampledSeconds="0.00" departed="0" arrived="0" entered="0" left="0" laneChangedFrom="0" laneChangedTo="0"/>
        <edge id="-1156000158" sampledSeconds="0.00" departed="0" arrived="0" entered="0" left="0" laneChangedFrom="0" laneChangedTo="0"/>
        <edge id="-1212504575" sampledSeconds="5.81" traveltime="1.60" overlapTraveltime="1.94" density="0.15" overlapDensity="0.18" laneDensity="0.07" occupancy="0.03" waitingTime="0.00" timeLoss="0.23" speed="13.39" speedRelative="0.96" departed="0" arrived="0" entered="3" left="3" laneChangedFrom="0" laneChangedTo="0" flow="7.23"/>
        <edge id="-1212506817#1" sampledSeconds="125.93" traveltime="1.67" overlapTraveltime="1.88" density="1.86" overlapDensity="2.09" laneDensity="0.93" occupancy="0.42" waitingTime="0.00" timeLoss="12.23" speed="23.77" speedRelative="0.86" departed="0" arrived="0" entered="67" left="67" laneChangedFrom="0" laneChangedTo="0" flow="158.94"/>
        <edge id="-1214459846" sampledSeconds="45.15" traveltime="6.11" overlapTraveltime="6.45" density="0.40" overlapDensity="0.42" laneDensity="0.40" occupancy="0.17" waitingTime="0.00" timeLoss="6.87" speed="11.85" speedRelative="0.85" departed="0" arrived="0" entered="7" left="7" laneChangedFrom="0" laneChangedTo="0" flow="16.92"/>
        <edge id="-1234167260#0" sampledSeconds="0.00" departed="0" arrived="0" entered="0" left="0" laneChangedFrom="0" laneChangedTo="0"/>
        <edge id="-1234167260#1" sampledSeconds="0.00" departed="0" arrived="0" entered="0" left="0" laneChangedFrom="0" laneChangedTo="0"/>
        <edge id="-1234167261#0" sampledSeconds="0.00" departed="0" arrived="0" entered="0" left="0" laneChangedFrom="0" laneChangedTo="0"/>
        <edge id="-1234167261#1" sampledSeconds="0.00" departed="0" arrived="0" entered="0" left="0" laneChangedFrom="0" laneChangedTo="0"/>
        <edge id="-1234167261#2" sampledSeconds="0.00" departed="0" arrived="0" entered="0" left="0" laneChangedFrom="0" laneChangedTo="0"/>
        <edge id="-1234167261#3" sampledSeconds="0.00" departed="0" arrived="0" entered="0" left="0" laneChangedFrom="0" laneChangedTo="0"/>
        <edge id="-1234167262#0" sampledSeconds="0.00" departed="0" arrived="0" entered="0" left="0" laneChangedFrom="0" laneChangedTo="0"/>
        <edge id="-1234167262#1" sampledSeconds="0.00" departed="0" arrived="0" entered="0" left="0" laneChangedFrom="0" laneChangedTo="0"/>
        <edge id="-1234167263" sampledSeconds="0.00" departed="0" arrived="0" entered="0" left="0" laneChangedFrom="0" laneChangedTo="0"/>
        <edge id="-1234167264#0" sampledSeconds="0.00" departed="0" arrived="0" entered="0" left="0" laneChangedFrom="0" laneChangedTo="0"/>
        <edge id="-1234167264#1" sampledSeconds="0.00" departed="0" arrived="0" entered="0" left="0" laneChangedFrom="0" laneChangedTo="0"/>
        <edge id="-1234167265#0" sampledSeconds="0.00" departed="0" arrived="0" entered="0" left="0" laneChangedFrom="0" laneChangedTo="0"/>
        <edge id="-1234167265#1" sampledSeconds="0.00" departed="0" arrived="0" entered="0" left="0" laneChangedFrom="0" laneChangedTo="0"/>
        <edge id="-1234167266" sampledSeconds="0.00" departed="0" arrived="0" entered="0" left="0" laneChangedFrom="0" laneChangedTo="0"/>
        <edge id="-1234167267" sampledSeconds="0.00" departed="0" arrived="0" entered="0" left="0" laneChangedFrom="0" laneChangedTo="0"/>
        <edge id="-1234167268" sampledSeconds="0.00" departed="0" arrived="0" entered="0" left="0" laneChangedFrom="0" laneChangedTo="0"/>
        <edge id="-1272650816" sampledSeconds="0.00" departed="0" arrived="0" entered="0" left="0" laneChangedFrom="0" laneChangedTo="0"/>
        <edge id="-1272650818" sampledSeconds="5.65" traveltime="4.86" overlapTraveltime="5.65" density="0.07" overlapDensity="0.09" laneDensity="0.07" occupancy="0.03" waitingTime="0.00" timeLoss="1.72" speed="8.51" speedRelative="0.61" departed="0" arrived="0" entered="1" left="1" laneChangedFrom="0" laneChangedTo="0" flow="2.28"/>
        <edge id="-1274179998#0" sampledSeconds="49.76" traveltime="2.35" overlapTraveltime="2.93" density="1.44" overlapDensity="1.80" laneDensity="1.44" occupancy="0.64" waitingTime="0.00" timeLoss="19.23" speed="7.84" speedRelative="0.56" departed="0" arrived="1" entered="17" left="16" laneChangedFrom="0" laneChangedTo="0" flow="40.73"/>
        <edge id="-1275244963" sampledSeconds="1.62" traveltime="1.19" overlapTraveltime="1.62" density="0.07" overlapDensity="0.10" laneDensity="0.07" occupancy="0.03" waitingTime="0.00" timeLoss="0.63" speed="9.34" speedRelative="0.67" departed="0" arrived="1" entered="1" left="0" laneChangedFrom="0" laneChangedTo="0" flow="2.51"/>
        <edge id="-1278348712" sampledSeconds="0.00" departed="0" arrived="0" entered="0" left="0" laneChangedFrom="0" laneChangedTo="0"/>
        <edge id="-1278357471#1" sampledSeconds="0.00" departed="0" arrived="0" entered="0" left="0" laneChangedFrom="0" laneChangedTo="0"/>
        <edge id="-1278358006" sampledSeconds="0.00" departed="0" arrived="0" entered="0" left="0" laneChangedFrom="0" laneChangedTo="0"/>
        <edge id="-1278364486" sampledSeconds="0.00" departed="0" arrived="0" entered="0" left="0" laneChangedFrom="0" laneChangedTo="0"/>
        <edge id="-1278367502" sampledSeconds="0.00" departed="0" arrived="0" entered="0" left="0" laneChangedFrom="0" laneChangedTo="0"/>
        <edge id="-1278367504#0" sampledSeconds="0.00" departed="0" arrived="0" entered="0" left="0" laneChangedFrom="0" laneChangedTo="0"/>
        <edge id="-1278370290#1" sampledSeconds="0.00" departed="0" arrived="0" entered="0" left="0" laneChangedFrom="0" laneChangedTo="0"/>
        <edge id="-1278370872" sampledSeconds="0.00" departed="0" arrived="0" entered="0" left="0" laneChangedFrom="0" laneChangedTo="0"/>
        <edge id="-1278654471" sampledSeconds="0.00" departed="0" arrived="0" entered="0" left="0" laneChangedFrom="0" laneChangedTo="0"/>
        <edge id="-1278654478" sampledSeconds="0.00" departed="0" arrived="0" entered="0" left="0" laneChangedFrom="0" laneChangedTo="0"/>
        <edge id="-1278654480" sampledSeconds="0.00" departed="0" arrived="0" entered="0" left="0" laneChangedFrom="0" laneChangedTo="0"/>
        <edge id="-1278654481" sampledSeconds="0.00" departed="0" arrived="0" entered="0" left="0" laneChangedFrom="0" laneChangedTo="0"/>
        <edge id="-1278654482#0" sampledSeconds="0.00" departed="0" arrived="0" entered="0" left="0" laneChangedFrom="0" laneChangedTo="0"/>
        <edge id="-1278655004" sampledSeconds="29.83" traveltime="6.80" overlapTraveltime="7.71" density="0.56" overlapDensity="0.61" laneDensity="0.56" occupancy="0.25" waitingTime="0.00" timeLoss="3.34" speed="4.81" speedRelative="0.87" departed="0" arrived="4" entered="4" left="0" laneChangedFrom="0" laneChangedTo="0" flow="9.64"/>
        <edge id="-1278655005#0" sampledSeconds="0.00" departed="0" arrived="0" entered="0" left="0" laneChangedFrom="0" laneChangedTo="0"/>
        <edge id="-1278683562" sampledSeconds="0.00" departed="0" arrived="0" entered="0" left="0" laneChangedFrom="0" laneChangedTo="0"/>
        <edge id="-1278683566#0" sampledSeconds="0.00" departed="0" arrived="0" entered="0" left="0" laneChangedFrom="0" laneChangedTo="0"/>
        <edge id="-1278683566#1" sampledSeconds="0.00" departed="0" arrived="0" entered="0" left="0" laneChangedFrom="0" laneChangedTo="0"/>
        <edge id="-1278683567" sampledSeconds="0.00" departed="0" arrived="0" entered="0" left="0" laneChangedFrom="0" laneChangedTo="0"/>
        <edge id="-1278761801#0" sampledSeconds="0.00" departed="0" arrived="0" entered="0" left="0" laneChangedFrom="0" laneChangedTo="0"/>
        <edge id="-1278955670" sampledSeconds="0.00" departed="0" arrived="0" entered="0" left="0" laneChangedFrom="0" laneChangedTo="0"/>
        <edge id="-1279260094" sampledSeconds="0.00" departed="0" arrived="0" entered="0" left="0" laneChangedFrom="0" laneChangedTo="0"/>
        <edge id="-1279681436#0" sampledSeconds="0.00" departed="0" arrived="0" entered="0" left="0" laneChangedFrom="0" laneChangedTo="0"/>
        <edge id="-1279681437#0" sampledSeconds="0.00" departed="0" arrived="0" entered="0" left="0" laneChangedFrom="0" laneChangedTo="0"/>
        <edge id="-1279681438" sampledSeconds="0.00" departed="0" arrived="0" entered="0" left="0" laneChangedFrom="0" laneChangedTo="0"/>
        <edge id="-1279810235#0" sampledSeconds="0.00" departed="0" arrived="0" entered="0" left="0" laneChangedFrom="0" laneChangedTo="0"/>
        <edge id="-1279810236#0" sampledSeconds="0.00" departed="0" arrived="0" entered="0" left="0" laneChangedFrom="0" laneChangedTo="0"/>
        <edge id="-1279810237#0" sampledSeconds="0.00" departed="0" arrived="0" entered="0" left="0" laneChangedFrom="0" laneChangedTo="0"/>
        <edge id="-1279810242#0" sampledSeconds="0.00" departed="0" arrived="0" entered="0" left="0" laneChangedFrom="0" laneChangedTo="0"/>
        <edge id="-1279814597#0" sampledSeconds="0.00" departed="0" arrived="0" entered="0" left="0" laneChangedFrom="0" laneChangedTo="0"/>
        <edge id="-1279814598#1" sampledSeconds="0.00" departed="0" arrived="0" entered="0" left="0" laneChangedFrom="0" laneChangedTo="0"/>
        <edge id="-1279816417" sampledSeconds="539.67" traveltime="8.14" overlapTraveltime="8.71" density="4.74" overlapDensity="5.06" laneDensity="2.37" occupancy="1.07" waitingTime="78.00" timeLoss="363.39" speed="8.68" speedRelative="0.31" departed="0" arrived="0" entered="62" left="62" laneChangedFrom="12" laneChangedTo="12" flow="148.03"/>
        <edge id="-1280058649#0" sampledSeconds="0.00" departed="0" arrived="0" entered="0" left="0" laneChangedFrom="0" laneChangedTo="0"/>
        <edge id="-1280060617#1" sampledSeconds="0.00" departed="0" arrived="0" entered="0" left="0" laneChangedFrom="0" laneChangedTo="0"/>
        <edge id="-1280060618" sampledSeconds="0.00" departed="0" arrived="0" entered="0" left="0" laneChangedFrom="0" laneChangedTo="0"/>
        <edge id="-1280073311" sampledSeconds="0.00" departed="0" arrived="0" entered="0" left="0" laneChangedFrom="0" laneChangedTo="0"/>
        <edge id="-1280079384" sampledSeconds="0.00" departed="0" arrived="0" entered="0" left="0" laneChangedFrom="0" laneChangedTo="0"/>
        <edge id="-1280079385#0" sampledSeconds="0.00" departed="0" arrived="0" entered="0" left="0" laneChangedFrom="0" laneChangedTo="0"/>
        <edge id="-1280079388#1" sampledSeconds="123.25" traveltime="12.14" overlapTraveltime="13.69" density="2.85" overlapDensity="3.22" laneDensity="1.43" occupancy="0.68" waitingTime="68.00" timeLoss="103.47" speed="2.20" speedRelative="0.16" departed="0" arrived="0" entered="9" left="9" laneChangedFrom="1" laneChangedTo="1" flow="22.53"/>
        <edge id="-1280084164" sampledSeconds="0.00" departed="0" arrived="0" entered="0" left="0" laneChangedFrom="0" laneChangedTo="0"/>
        <edge id="-1280084165#0" sampledSeconds="0.00" departed="0" arrived="0" entered="0" left="0" laneChangedFrom="0" laneChangedTo="0"/>
        <edge id="-1280084165#1" sampledSeconds="0.00" departed="0" arrived="0" entered="0" left="0" laneChangedFrom="0" laneChangedTo="0"/>
        <edge id="-1280084168#0" sampledSeconds="0.00" departed="0" arrived="0" entered="0" left="0" laneChangedFrom="0" laneChangedTo="0"/>
        <edge id="-1280084173#0" sampledSeconds="0.00" departed="0" arrived="0" entered="0" left="0" laneChangedFrom="0" laneChangedTo="0"/>
        <edge id="-1280084174#1" sampledSeconds="0.00" departed="0" arrived="0" entered="0" left="0" laneChangedFrom="0" laneChangedTo="0"/>
        <edge id="-1280086013" sampledSeconds="21.15" traveltime="3.05" overlapTraveltime="7.05" density="0.27" overlapDensity="0.63" laneDensity="0.27" occupancy="0.23" waitingTime="7.00" timeLoss="15.10" speed="3.83" speedRelative="0.28" departed="0" arrived="0" entered="3" left="3" laneChangedFrom="0" laneChangedTo="0" flow="3.74"/>
        <edge id="-1280828148" sampledSeconds="0.00" departed="0" arrived="0" entered="0" left="0" laneChangedFrom="0" laneChangedTo="0"/>
        <edge id="-1281348522" sampledSeconds="0.00" departed="0" arrived="0" entered="0" left="0" laneChangedFrom="0" laneChangedTo="0"/>
        <edge id="-1281884999" sampledSeconds="2.33" traveltime="1.93" overlapTraveltime="2.33" density="0.07" overlapDensity="0.09" laneDensity="0.07" occupancy="0.03" waitingTime="0.00" timeLoss="0.77" speed="9.53" speedRelative="0.69" departed="0" arrived="1" entered="1" left="0" laneChangedFrom="0" laneChangedTo="0" flow="2.50"/>
        <edge id="-1288391059" sampledSeconds="0.00" departed="0" arrived="0" entered="0" left="0" laneChangedFrom="0" laneChangedTo="0"/>
        <edge id="-1288410664" sampledSeconds="4.53" traveltime="3.86" overlapTraveltime="4.53" density="0.06" overlapDensity="0.07" laneDensity="0.06" occupancy="0.03" waitingTime="0.00" timeLoss="0.95" speed="10.30" speedRelative="0.74" departed="0" arrived="0" entered="1" left="1" laneChangedFrom="0" laneChangedTo="0" flow="2.26"/>
        <edge id="-1288410665" sampledSeconds="0.00" departed="0" arrived="0" entered="0" left="0" laneChangedFrom="0" laneChangedTo="0"/>
        <edge id="-1289152445" sampledSeconds="26.05" traveltime="7.70" overlapTraveltime="8.68" density="0.19" overlapDensity="0.22" laneDensity="0.19" occupancy="0.09" waitingTime="0.00" timeLoss="6.22" speed="9.77" speedRelative="0.70" departed="0" arrived="0" entered="3" left="3" laneChangedFrom="0" laneChangedTo="0" flow="6.74"/>
        <edge id="-1289152448" sampledSeconds="0.00" departed="0" arrived="0" entered="0" left="0" laneChangedFrom="0" laneChangedTo="0"/>
        <edge id="-1289152449" sampledSeconds="0.00" departed="0" arrived="0" entered="0" left="0" laneChangedFrom="0" laneChangedTo="0"/>
        <edge id="-1289152450#0" sampledSeconds="6.98" traveltime="6.27" overlapTraveltime="6.98" density="0.06" overlapDensity="0.07" laneDensity="0.06" occupancy="0.03" waitingTime="0.00" timeLoss="1.43" speed="10.12" speedRelative="0.73" departed="0" arrived="0" entered="1" left="1" laneChangedFrom="0" laneChangedTo="0" flow="2.30"/>
        <edge id="-1289152450#1" sampledSeconds="4.31" traveltime="0.38" overlapTraveltime="1.08" density="0.45" overlapDensity="1.27" laneDensity="0.45" occupancy="0.19" waitingTime="0.00" timeLoss="1.30" speed="6.28" speedRelative="0.45" departed="0" arrived="0" entered="4" left="4" laneChangedFrom="0" laneChangedTo="0" flow="10.14"/>
        <edge id="-1291554831" sampledSeconds="0.00" departed="0" arrived="0" entered="0" left="0" laneChangedFrom="0" laneChangedTo="0"/>
        <edge id="-1291573302" sampledSeconds="0.00" departed="0" arrived="0" entered="0" left="0" laneChangedFrom="0" laneChangedTo="0"/>
        <edge id="-1291931391" sampledSeconds="3.94" traveltime="1.42" overlapTraveltime="1.97" density="0.20" overlapDensity="0.28" laneDensity="0.20" occupancy="0.08" waitingTime="0.00" timeLoss="1.28" speed="7.11" speedRelative="0.51" departed="0" arrived="0" entered="2" left="2" laneChangedFrom="0" laneChangedTo="0" flow="5.09"/>
        <edge id="-1292162268#1" sampledSeconds="0.00" departed="0" arrived="0" entered="0" left="0" laneChangedFrom="0" laneChangedTo="0"/>
        <edge id="-1292162270" sampledSeconds="0.00" departed="0" arrived="0" entered="0" left="0" laneChangedFrom="0" laneChangedTo="0"/>
        <edge id="-1292162271" sampledSeconds="0.00" departed="0" arrived="0" entered="0" left="0" laneChangedFrom="0" laneChangedTo="0"/>
        <edge id="-1292162272#0" sampledSeconds="0.00" departed="0" arrived="0" entered="0" left="0" laneChangedFrom="0" laneChangedTo="0"/>
        <edge id="-1292171261" sampledSeconds="26.94" traveltime="0.59" overlapTraveltime="1.17" density="1.97" overlapDensity="3.91" laneDensity="1.97" occupancy="0.89" waitingTime="0.00" timeLoss="2.34" speed="7.77" speedRelative="0.93" departed="0" arrived="0" entered="23" left="23" laneChangedFrom="0" laneChangedTo="0" flow="55.12"/>
        <edge id="-1292171262" sampledSeconds="38.65" traveltime="1.07" overlapTraveltime="1.68" density="2.21" overlapDensity="3.48" laneDensity="2.21" occupancy="1.00" waitingTime="0.00" timeLoss="6.48" speed="7.08" speedRelative="0.85" departed="0" arrived="0" entered="23" left="23" laneChangedFrom="0" laneChangedTo="0" flow="56.46"/>
        <edge id="-1292171263" sampledSeconds="65.38" traveltime="2.26" overlapTraveltime="2.84" density="1.99" overlapDensity="2.50" laneDensity="1.99" occupancy="0.90" waitingTime="0.00" timeLoss="6.07" speed="7.72" speedRelative="0.93" departed="0" arrived="0" entered="23" left="23" laneChangedFrom="0" laneChangedTo="0" flow="55.18"/>
        <edge id="-1292171264" sampledSeconds="179.10" traveltime="6.90" overlapTraveltime="7.48" density="2.05" overlapDensity="2.22" laneDensity="2.05" occupancy="0.92" waitingTime="0.00" timeLoss="15.03" speed="7.79" speedRelative="0.94" departed="0" arrived="1" entered="24" left="23" laneChangedFrom="0" laneChangedTo="0" flow="57.56"/>
        <edge id="-1292171266" sampledSeconds="140.48" traveltime="5.04" overlapTraveltime="5.63" density="2.15" overlapDensity="2.40" laneDensity="2.15" occupancy="0.97" waitingTime="0.00" timeLoss="13.31" speed="7.74" speedRelative="0.93" departed="0" arrived="1" entered="25" left="24" laneChangedFrom="0" laneChangedTo="0" flow="60.00"/>
        <edge id="-1292171267" sampledSeconds="62.06" traveltime="1.91" overlapTraveltime="2.48" density="2.10" overlapDensity="2.73" laneDensity="2.10" occupancy="0.95" waitingTime="0.00" timeLoss="4.61" speed="7.92" speedRelative="0.95" departed="0" arrived="0" entered="25" left="25" laneChangedFrom="0" laneChangedTo="0" flow="59.90"/>
        <edge id="-1300286267#0" sampledSeconds="0.00" departed="0" arrived="0" entered="0" left="0" laneChangedFrom="0" laneChangedTo="0"/>
        <edge id="-1300421899" sampledSeconds="0.00" departed="0" arrived="0" entered="0" left="0" laneChangedFrom="0" laneChangedTo="0"/>
        <edge id="-1301766109" sampledSeconds="0.00" departed="0" arrived="0" entered="0" left="0" laneChangedFrom="0" laneChangedTo="0"/>
        <edge id="-1302514927" sampledSeconds="0.00" departed="0" arrived="0" entered="0" left="0" laneChangedFrom="0" laneChangedTo="0"/>
        <edge id="-1314651742#0" sampledSeconds="0.00" departed="0" arrived="0" entered="0" left="0" laneChangedFrom="0" laneChangedTo="0"/>
        <edge id="-1314651742#1" sampledSeconds="0.00" departed="0" arrived="0" entered="0" left="0" laneChangedFrom="0" laneChangedTo="0"/>
        <edge id="-1314651747" sampledSeconds="0.00" departed="0" arrived="0" entered="0" left="0" laneChangedFrom="0" laneChangedTo="0"/>