<?xml version="1.0" encoding="UTF-8"?>

<!-- generated on 2026-02-07T14:52:34.840446+08:00 by Eclipse SUMO GUI 1.25.0
<sumoConfiguration xmlns:xsi="http://www.w3.org/2001/XMLSchema-instance" xsi:noNamespaceSchemaLocation="http://sumo.dlr.de/xsd/sumoConfiguration.xsd">

    <input>
        <net-file value="c:\Users\otaku\Documents\Thesis\apriori_civiq\scenarios/bgc_full/final_map.net.xml"/>
        <route-files value="c:\Users\otaku\Documents\Thesis\apriori_civiq\scenarios/bgc_full/trips_high.xml"/>
        <additional-files value="c:\Users\otaku\Documents\Thesis\apriori_civiq\scenarios/bgc_full/osm.poly.xml.gz,c:\Users\otaku\Documents\Thesis\apriori_civiq\scenarios/bgc_full/output.add.xml,c:\Users\otaku\Documents\Thesis\apriori_civiq\scenarios/bgc_full/vtypes.add.xml"/>
    </input>

    <output>
        <summary-output value="c:\Users\otaku\Documents\Thesis\apriori_civiq\scenarios/bgc_full/data\data_selfish_high_summary.xml"/>
        <tripinfo-output value="c:\Users\otaku\Documents\Thesis\apriori_civiq\scenarios/bgc_full/data\data_selfish_high_tripinfo.xml"/>
        <statistic-output value="c:\Users\otaku\Documents\Thesis\apriori_civiq\scenarios/bgc_full/data\data_selfish_high_stats.xml"/>
    </output>

    <time>
        <step-length value="1.0"/>
    </time>

    <processing>
        <ignore-route-errors value="true"/>
        <time-to-teleport value="-1"/>
        <tls.actuated.jam-threshold value="30"/>
    </processing>

    <routing>
        <device.rerouting.adaptation-steps value="18"/>
        <device.rerouting.adaptation-interval value="10"/>
    </routing>

    <report>
        <verbose value="true"/>
        <duration-log.statistics value="true"/>
        <no-step-log value="true"/>
    </report>

    <emissions>
        <device.emissions.probability value="1.0"/>
    </emissions>

    <traci_server>
        <remote-port value="65184"/>
    </traci_server>

    <gui_only>
        <gui-settings-file value="c:\Users\otaku\Documents\Thesis\apriori_civiq\scenarios/bgc_full/osm.view.xml"/>
        <start value="true"/>
    </gui_only>

</sumoConfiguration>
-->

<meandata xmlns:xsi="http://www.w3.org/2001/XMLSchema-instance" xsi:noNamespaceSchemaLocation="http://sumo.dlr.de/xsd/meandata_file.xsd">
    <interval begin="0.00" end="3600.00" id="wizard_example">
        <edge id="-1008051258#0" sampledSeconds="90.60" traveltime="3.39" overlapTraveltime="3.77" density="0.53" overlapDensity="0.59" laneDensity="0.53" occupancy="0.24" waitingTime="0.00" timeLoss="8.62" speed="12.45" speedRelative="0.90" departed="0" arrived="0" entered="24" left="24" laneChangedFrom="0" laneChangedTo="0" flow="23.82"/>
        <edge id="-1008051258#1" sampledSeconds="48.96" traveltime="1.87" overlapTraveltime="2.23" density="0.50" overlapDensity="0.59" laneDensity="0.50" occupancy="0.22" waitingTime="0.00" timeLoss="5.48" speed="12.30" speedRelative="0.89" departed="0" arrived="0" entered="22" left="22" laneChangedFrom="0" laneChangedTo="0" flow="22.11"/>
        <edge id="-1008051258#2" sampledSeconds="91.40" traveltime="2.70" overlapTraveltime="3.26" density="0.89" overlapDensity="1.08" laneDensity="0.89" occupancy="0.41" waitingTime="0.00" timeLoss="32.71" speed="8.58" speedRelative="0.62" departed="0" arrived="1" entered="28" left="27" laneChangedFrom="0" laneChangedTo="0" flow="27.63"/>
        <edge id="-1008051258#3" sampledSeconds="99.54" traveltime="2.59" overlapTraveltime="3.21" density="1.08" overlapDensity="1.34" laneDensity="1.08" occupancy="0.51" waitingTime="0.00" timeLoss="41.85" speed="7.82" speedRelative="0.56" departed="0" arrived="0" entered="31" left="31" laneChangedFrom="0" laneChangedTo="0" flow="30.46"/>
        <edge id="-1008051258#4" sampledSeconds="103.62" traveltime="2.78" overlapTraveltime="3.24" density="0.98" overlapDensity="1.14" laneDensity="0.98" occupancy="0.43" waitingTime="0.00" timeLoss="32.37" speed="9.16" speedRelative="0.66" departed="0" arrived="0" entered="32" left="32" laneChangedFrom="0" laneChangedTo="0" flow="32.41"/>
        <edge id="-1008051258#5" sampledSeconds="5.08" traveltime="5.46" overlapTraveltime="5.94" density="0.05" overlapDensity="0.05" laneDensity="0.05" occupancy="0.02" waitingTime="0.00" timeLoss="2.96" speed="5.31" speedRelative="0.38" departed="1" arrived="0" entered="0" left="1" laneChangedFrom="0" laneChangedTo="0" flow="0.89"/>
        <edge id="-101376482" sampledSeconds="0.00" departed="0" arrived="0" entered="0" left="0" laneChangedFrom="0" laneChangedTo="0"/>
        <edge id="-101376495#1" sampledSeconds="0.00" departed="0" arrived="0" entered="0" left="0" laneChangedFrom="0" laneChangedTo="0"/>
        <edge id="-101476579" sampledSeconds="298.26" traveltime="5.02" overlapTraveltime="5.74" density="2.02" overlapDensity="2.31" laneDensity="1.01" occupancy="0.46" waitingTime="0.00" timeLoss="45.38" speed="7.03" speedRelative="0.84" departed="0" arrived="0" entered="52" left="52" laneChangedFrom="0" laneChangedTo="0" flow="51.20"/>
        <edge id="-101476581" sampledSeconds="22.14" traveltime="2.54" overlapTraveltime="3.27" density="0.48" overlapDensity="0.89" laneDensity="0.48" occupancy="0.29" waitingTime="0.00" timeLoss="12.97" speed="3.50" speedRelative="0.25" departed="8" arrived="0" entered="2" left="10" laneChangedFrom="0" laneChangedTo="0" flow="6.01"/>
        <edge id="-1022486131#1" sampledSeconds="0.00" departed="0" arrived="0" entered="0" left="0" laneChangedFrom="0" laneChangedTo="0"/>
        <edge id="-1042494593#0" sampledSeconds="0.00" departed="0" arrived="0" entered="0" left="0" laneChangedFrom="0" laneChangedTo="0"/>
        <edge id="-104357790#0" sampledSeconds="0.00" departed="0" arrived="0" entered="0" left="0" laneChangedFrom="0" laneChangedTo="0"/>
        <edge id="-104357790#1" sampledSeconds="0.00" departed="0" arrived="0" entered="0" left="0" laneChangedFrom="0" laneChangedTo="0"/>
        <edge id="-1064374314#0" sampledSeconds="0.00" departed="0" arrived="0" entered="0" left="0" laneChangedFrom="0" laneChangedTo="0"/>
        <edge id="-1064374314#1" sampledSeconds="0.00" departed="0" arrived="0" entered="0" left="0" laneChangedFrom="0" laneChangedTo="0"/>
        <edge id="-1064386463" sampledSeconds="0.00" departed="0" arrived="0" entered="0" left="0" laneChangedFrom="0" laneChangedTo="0"/>
        <edge id="-1064386464" sampledSeconds="36.68" traveltime="3.81" overlapTraveltime="4.16" density="0.23" overlapDensity="0.25" laneDensity="0.23" occupancy="0.10" waitingTime="0.00" timeLoss="7.35" speed="11.01" speedRelative="0.79" departed="0" arrived="9" entered="9" left="0" laneChangedFrom="0" laneChangedTo="0" flow="9.13"/>
        <edge id="-1065726171#0" sampledSeconds="88.38" traveltime="3.95" overlapTraveltime="4.69" density="0.71" overlapDensity="0.84" laneDensity="0.71" occupancy="0.33" waitingTime="0.00" timeLoss="9.26" speed="7.17" speedRelative="0.86" departed="1" arrived="0" entered="18" left="19" laneChangedFrom="0" laneChangedTo="0" flow="18.35"/>
        <edge id="-1065726171#1" sampledSeconds="1222.23" traveltime="5.95" overlapTraveltime="6.98" density="8.33" overlapDensity="9.78" laneDensity="8.33" occupancy="3.82" waitingTime="72.00" timeLoss="417.63" speed="5.61" speedRelative="0.67" departed="0" arrived="0" entered="175" left="175" laneChangedFrom="0" laneChangedTo="0" flow="168.38"/>
        <edge id="-1065726174" sampledSeconds="30.76" traveltime="5.90" overlapTraveltime="6.26" density="0.13" overlapDensity="0.13" laneDensity="0.13" occupancy="0.06" waitingTime="0.00" timeLoss="6.20" speed="10.89" speedRelative="0.78" departed="0" arrived="5" entered="5" left="0" laneChangedFrom="0" laneChangedTo="0" flow="5.04"/>
        <edge id="-1071486787" sampledSeconds="0.00" departed="0" arrived="0" entered="0" left="0" laneChangedFrom="0" laneChangedTo="0"/>
        <edge id="-1071486788" sampledSeconds="0.00" departed="0" arrived="0" entered="0" left="0" laneChangedFrom="0" laneChangedTo="0"/>
        <edge id="-1071486789" sampledSeconds="0.00" departed="0" arrived="0" entered="0" left="0" laneChangedFrom="0" laneChangedTo="0"/>
        <edge id="-1071787530" sampledSeconds="23.43" traveltime="5.56" overlapTraveltime="5.95" density="0.11" overlapDensity="0.11" laneDensity="0.11" occupancy="0.05" waitingTime="0.00" timeLoss="4.09" speed="10.54" speedRelative="0.76" departed="0" arrived="4" entered="4" left="0" laneChangedFrom="0" laneChangedTo="0" flow="4.03"/>
        <edge id="-1072138522" sampledSeconds="28.24" traveltime="5.12" overlapTraveltime="5.70" density="0.13" overlapDensity="0.14" laneDensity="0.13" occupancy="0.06" waitingTime="0.00" timeLoss="5.92" speed="10.47" speedRelative="0.75" departed="0" arrived="4" entered="5" left="1" laneChangedFrom="0" laneChangedTo="0" flow="4.86"/>
        <edge id="-1072143217" sampledSeconds="0.00" departed="0" arrived="0" entered="0" left="0" laneChangedFrom="0" laneChangedTo="0"/>
        <edge id="-1072176585" sampledSeconds="17.95" traveltime="2.73" overlapTraveltime="3.14" density="0.18" overlapDensity="0.20" laneDensity="0.18" occupancy="0.08" waitingTime="0.00" timeLoss="5.60" speed="9.36" speedRelative="0.67" departed="0" arrived="6" entered="6" left="0" laneChangedFrom="0" laneChangedTo="0" flow="6.14"/>
        <edge id="-1072192654" sampledSeconds="34.38" traveltime="2.50" overlapTraveltime="3.14" density="0.40" overlapDensity="0.50" laneDensity="0.40" occupancy="0.19" waitingTime="0.00" timeLoss="14.71" speed="7.46" speedRelative="0.54" departed="0" arrived="1" entered="11" left="10" laneChangedFrom="0" laneChangedTo="0" flow="10.84"/>
        <edge id="-1072192655" sampledSeconds="9.59" traveltime="1.47" overlapTraveltime="2.65" density="0.18" overlapDensity="0.34" laneDensity="0.09" occupancy="0.05" waitingTime="0.00" timeLoss="4.71" speed="4.63" speedRelative="0.33" departed="1" arrived="2" entered="3" left="2" laneChangedFrom="1" laneChangedTo="1" flow="2.99"/>
        <edge id="-1072192656" sampledSeconds="4.83" traveltime="5.28" overlapTraveltime="5.64" density="0.04" overlapDensity="0.05" laneDensity="0.04" occupancy="0.02" waitingTime="0.00" timeLoss="2.72" speed="5.62" speedRelative="0.40" departed="1" arrived="0" entered="0" left="1" laneChangedFrom="0" laneChangedTo="0" flow="0.91"/>
        <edge id="-1072192658" sampledSeconds="0.00" departed="0" arrived="0" entered="0" left="0" laneChangedFrom="0" laneChangedTo="0"/>
        <edge id="-1072192659#0" sampledSeconds="13.34" traveltime="1.59" overlapTraveltime="1.91" density="0.15" overlapDensity="0.18" laneDensity="0.15" occupancy="0.06" waitingTime="0.00" timeLoss="1.30" speed="13.47" speedRelative="0.97" departed="0" arrived="0" entered="7" left="7" laneChangedFrom="0" laneChangedTo="0" flow="7.06"/>
        <edge id="-1072977677" sampledSeconds="0.00" departed="0" arrived="0" entered="0" left="0" laneChangedFrom="0" laneChangedTo="0"/>
        <edge id="-1072992795" sampledSeconds="8.95" traveltime="4.31" overlapTraveltime="4.87" density="0.07" overlapDensity="0.08" laneDensity="0.07" occupancy="0.03" waitingTime="0.00" timeLoss="3.80" speed="7.58" speedRelative="0.55" departed="1" arrived="1" entered="1" left="1" laneChangedFrom="0" laneChangedTo="0" flow="1.87"/>
        <edge id="-1077777151" sampledSeconds="0.00" departed="0" arrived="0" entered="0" left="0" laneChangedFrom="0" laneChangedTo="0"/>
        <edge id="-1077777153" sampledSeconds="0.00" departed="0" arrived="0" entered="0" left="0" laneChangedFrom="0" laneChangedTo="0"/>
        <edge id="-1077777154" sampledSeconds="0.00" departed="0" arrived="0" entered="0" left="0" laneChangedFrom="0" laneChangedTo="0"/>
        <edge id="-1077793341#0" sampledSeconds="0.00" departed="0" arrived="0" entered="0" left="0" laneChangedFrom="0" laneChangedTo="0"/>
        <edge id="-1077807236" sampledSeconds="0.00" departed="0" arrived="0" entered="0" left="0" laneChangedFrom="0" laneChangedTo="0"/>
        <edge id="-1088170204" sampledSeconds="0.00" departed="0" arrived="0" entered="0" left="0" laneChangedFrom="0" laneChangedTo="0"/>
        <edge id="-1092255860" sampledSeconds="741.69" traveltime="14.17" overlapTraveltime="15.14" density="2.92" overlapDensity="3.12" laneDensity="2.92" occupancy="1.32" waitingTime="4.00" timeLoss="117.88" speed="4.65" speedRelative="0.84" departed="0" arrived="0" entered="49" left="49" laneChangedFrom="0" laneChangedTo="0" flow="48.99"/>
        <edge id="-1120242622" sampledSeconds="0.00" departed="0" arrived="0" entered="0" left="0" laneChangedFrom="0" laneChangedTo="0"/>
        <edge id="-1154155306#1" sampledSeconds="0.00" departed="0" arrived="0" entered="0" left="0" laneChangedFrom="0" laneChangedTo="0"/>
        <edge id="-1154155307#1" sampledSeconds="0.00" departed="0" arrived="0" entered="0" left="0" laneChangedFrom="0" laneChangedTo="0"/>
        <edge id="-1156000158" sampledSeconds="0.00" departed="0" arrived="0" entered="0" left="0" laneChangedFrom="0" laneChangedTo="0"/>
        <edge id="-1212504575" sampledSeconds="25.91" traveltime="1.64" overlapTraveltime="1.99" density="0.28" overlapDensity="0.34" laneDensity="0.14" occupancy="0.06" waitingTime="0.00" timeLoss="1.27" speed="13.01" speedRelative="0.94" departed="0" arrived="0" entered="13" left="13" laneChangedFrom="0" laneChangedTo="0" flow="12.97"/>
        <edge id="-1212506817#1" sampledSeconds="260.14" traveltime="1.95" overlapTraveltime="2.24" density="1.57" overlapDensity="1.80" laneDensity="0.78" occupancy="0.36" waitingTime="0.00" timeLoss="55.59" speed="19.93" speedRelative="0.72" departed="0" arrived="0" entered="116" left="116" laneChangedFrom="0" laneChangedTo="0" flow="112.38"/>
        <edge id="-1214459846" sampledSeconds="128.21" traveltime="6.06" overlapTraveltime="6.41" density="0.47" overlapDensity="0.50" laneDensity="0.47" occupancy="0.21" waitingTime="0.00" timeLoss="16.55" speed="11.92" speedRelative="0.86" departed="0" arrived="0" entered="20" left="20" laneChangedFrom="0" laneChangedTo="0" flow="20.10"/>
        <edge id="-1234167260#0" sampledSeconds="0.00" departed="0" arrived="0" entered="0" left="0" laneChangedFrom="0" laneChangedTo="0"/>
        <edge id="-1234167260#1" sampledSeconds="0.00" departed="0" arrived="0" entered="0" left="0" laneChangedFrom="0" laneChangedTo="0"/>
        <edge id="-1234167261#0" sampledSeconds="0.00" departed="0" arrived="0" entered="0" left="0" laneChangedFrom="0" laneChangedTo="0"/>
        <edge id="-1234167261#1" sampledSeconds="0.00" departed="0" arrived="0" entered="0" left="0" laneChangedFrom="0" laneChangedTo="0"/>
        <edge id="-1234167261#2" sampledSeconds="0.00" departed="0" arrived="0" entered="0" left="0" laneChangedFrom="0" laneChangedTo="0"/>
        <edge id="-1234167261#3" sampledSeconds="0.00" departed="0" arrived="0" entered="0" left="0" laneChangedFrom="0" laneChangedTo="0"/>
        <edge id="-1234167262#0" sampledSeconds="0.00" departed="0" arrived="0" entered="0" left="0" laneChangedFrom="0" laneChangedTo="0"/>
        <edge id="-1234167262#1" sampledSeconds="0.00" departed="0" arrived="0" entered="0" left="0" laneChangedFrom="0" laneChangedTo="0"/>
        <edge id="-1234167263" sampledSeconds="0.00" departed="0" arrived="0" entered="0" left="0" laneChangedFrom="0" laneChangedTo="0"/>
        <edge id="-1234167264#0" sampledSeconds="0.00" departed="0" arrived="0" entered="0" left="0" laneChangedFrom="0" laneChangedTo="0"/>
        <edge id="-1234167264#1" sampledSeconds="0.00" departed="0" arrived="0" entered="0" left="0" laneChangedFrom="0" laneChangedTo="0"/>
        <edge id="-1234167265#0" sampledSeconds="0.00" departed="0" arrived="0" entered="0" left="0" laneChangedFrom="0" laneChangedTo="0"/>
        <edge id="-1234167265#1" sampledSeconds="0.00" departed="0" arrived="0" entered="0" left="0" laneChangedFrom="0" laneChangedTo="0"/>
        <edge id="-1234167266" sampledSeconds="0.00" departed="0" arrived="0" entered="0" left="0" laneChangedFrom="0" laneChangedTo="0"/>
        <edge id="-1234167267" sampledSeconds="0.00" departed="0" arrived="0" entered="0" left="0" laneChangedFrom="0" laneChangedTo="0"/>
        <edge id="-1234167268" sampledSeconds="0.00" departed="0" arrived="0" entered="0" left="0" laneChangedFrom="0" laneChangedTo="0"/>
        <edge id="-1272650816" sampledSeconds="26.13" traveltime="12.83" overlapTraveltime="13.20" density="0.05" overlapDensity="0.05" laneDensity="0.05" occupancy="0.02" waitingTime="0.00" timeLoss="6.08" speed="10.83" speedRelative="0.78" departed="0" arrived="2" entered="2" left="0" laneChangedFrom="0" laneChangedTo="0" flow="2.01"/>
        <edge id="-1272650818" sampledSeconds="11.66" traveltime="4.86" overlapTraveltime="5.83" density="0.06" overlapDensity="0.07" laneDensity="0.06" occupancy="0.03" waitingTime="0.00" timeLoss="3.43" speed="8.24" speedRelative="0.59" departed="0" arrived="0" entered="2" left="2" laneChangedFrom="0" laneChangedTo="0" flow="1.84"/>
        <edge id="-1274179998#0" sampledSeconds="219.42" traveltime="2.50" overlapTraveltime="3.14" density="2.63" overlapDensity="3.30" laneDensity="2.63" occupancy="1.17" waitingTime="0.00" timeLoss="84.13" speed="7.32" speedRelative="0.53" departed="0" arrived="1" entered="70" left="69" laneChangedFrom="0" laneChangedTo="0" flow="69.40"/>
        <edge id="-1275244963" sampledSeconds="13.04" traveltime="1.94" overlapTraveltime="2.78" density="0.23" overlapDensity="0.34" laneDensity="0.23" occupancy="0.11" waitingTime="0.00" timeLoss="6.69" speed="5.45" speedRelative="0.39" departed="1" arrived="1" entered="4" left="4" laneChangedFrom="0" laneChangedTo="0" flow="4.55"/>
        <edge id="-1278348712" sampledSeconds="0.00" departed="0" arrived="0" entered="0" left="0" laneChangedFrom="0" laneChangedTo="0"/>
        <edge id="-1278357471#1" sampledSeconds="0.00" departed="0" arrived="0" entered="0" left="0" laneChangedFrom="0" laneChangedTo="0"/>
        <edge id="-1278358006" sampledSeconds="0.00" departed="0" arrived="0" entered="0" left="0" laneChangedFrom="0" laneChangedTo="0"/>
        <edge id="-1278364486" sampledSeconds="0.00" departed="0" arrived="0" entered="0" left="0" laneChangedFrom="0" laneChangedTo="0"/>
        <edge id="-1278367502" sampledSeconds="0.00" departed="0" arrived="0" entered="0" left="0" laneChangedFrom="0" laneChangedTo="0"/>
        <edge id="-1278367504#0" sampledSeconds="0.00" departed="0" arrived="0" entered="0" left="0" laneChangedFrom="0" laneChangedTo="0"/>
        <edge id="-1278370290#1" sampledSeconds="0.00" departed="0" arrived="0" entered="0" left="0" laneChangedFrom="0" laneChangedTo="0"/>
        <edge id="-1278370872" sampledSeconds="0.00" departed="0" arrived="0" entered="0" left="0" laneChangedFrom="0" laneChangedTo="0"/>
        <edge id="-1278654471" sampledSeconds="0.00" departed="0" arrived="0" entered="0" left="0" laneChangedFrom="0" laneChangedTo="0"/>
        <edge id="-1278654478" sampledSeconds="0.00" departed="0" arrived="0" entered="0" left="0" laneChangedFrom="0" laneChangedTo="0"/>
        <edge id="-1278654480" sampledSeconds="0.00" departed="0" arrived="0" entered="0" left="0" laneChangedFrom="0" laneChangedTo="0"/>
        <edge id="-1278654481" sampledSeconds="0.00" departed="0" arrived="0" entered="0" left="0" laneChangedFrom="0" laneChangedTo="0"/>
        <edge id="-1278654482#0" sampledSeconds="0.00" departed="0" arrived="0" entered="0" left="0" laneChangedFrom="0" laneChangedTo="0"/>
        <edge id="-1278655004" sampledSeconds="88.90" traveltime="6.93" overlapTraveltime="7.88" density="0.71" overlapDensity="0.76" laneDensity="0.71" occupancy="0.31" waitingTime="0.00" timeLoss="10.22" speed="4.71" speedRelative="0.85" departed="0" arrived="12" entered="12" left="0" laneChangedFrom="0" laneChangedTo="0" flow="12.01"/>
        <edge id="-1278655005#0" sampledSeconds="0.00" departed="0" arrived="0" entered="0" left="0" laneChangedFrom="0" laneChangedTo="0"/>
        <edge id="-1278683562" sampledSeconds="0.00" departed="0" arrived="0" entered="0" left="0" laneChangedFrom="0" laneChangedTo="0"/>
        <edge id="-1278683566#0" sampledSeconds="0.00" departed="0" arrived="0" entered="0" left="0" laneChangedFrom="0" laneChangedTo="0"/>
        <edge id="-1278683566#1" sampledSeconds="0.00" departed="0" arrived="0" entered="0" left="0" laneChangedFrom="0" laneChangedTo="0"/>
        <edge id="-1278683567" sampledSeconds="0.00" departed="0" arrived="0" entered="0" left="0" laneChangedFrom="0" laneChangedTo="0"/>
        <edge id="-1278761801#0" sampledSeconds="0.00" departed="0" arrived="0" entered="0" left="0" laneChangedFrom="0" laneChangedTo="0"/>
        <edge id="-1278955670" sampledSeconds="0.00" departed="0" arrived="0" entered="0" left="0" laneChangedFrom="0" laneChangedTo="0"/>
        <edge id="-1279260094" sampledSeconds="0.00" departed="0" arrived="0" entered="0" left="0" laneChangedFrom="0" laneChangedTo="0"/>
        <edge id="-1279681436#0" sampledSeconds="0.00" departed="0" arrived="0" entered="0" left="0" laneChangedFrom="0" laneChangedTo="0"/>
        <edge id="-1279681437#0" sampledSeconds="0.00" departed="0" arrived="0" entered="0" left="0" laneChangedFrom="0" laneChangedTo="0"/>
        <edge id="-1279681438" sampledSeconds="0.00" departed="0" arrived="0" entered="0" left="0" laneChangedFrom="0" laneChangedTo="0"/>
        <edge id="-1279810235#0" sampledSeconds="0.00" departed="0" arrived="0" entered="0" left="0" laneChangedFrom="0" laneChangedTo="0"/>
        <edge id="-1279810236#0" sampledSeconds="0.00" departed="0" arrived="0" entered="0" left="0" laneChangedFrom="0" laneChangedTo="0"/>
        <edge id="-1279810237#0" sampledSeconds="0.00" departed="0" arrived="0" entered="0" left="0" laneChangedFrom="0" laneChangedTo="0"/>
        <edge id="-1279810242#0" sampledSeconds="0.00" departed="0" arrived="0" entered="0" left="0" laneChangedFrom="0" laneChangedTo="0"/>
        <edge id="-1279814597#0" sampledSeconds="0.00" departed="0" arrived="0" entered="0" left="0" laneChangedFrom="0" laneChangedTo="0"/>
        <edge id="-1279814598#1" sampledSeconds="0.00" departed="0" arrived="0" entered="0" left="0" laneChangedFrom="0" laneChangedTo="0"/>
        <edge id="-1279816417" sampledSeconds="741.44" traveltime="9.94" overlapTraveltime="10.60" density="2.72" overlapDensity="2.90" laneDensity="1.36" occupancy="0.62" waitingTime="188.00" timeLoss="543.98" speed="7.13" speedRelative="0.26" departed="1" arrived="0" entered="69" left="70" laneChangedFrom="13" laneChangedTo="13" flow="69.70"/>
        <edge id="-1280058649#0" sampledSeconds="0.00" departed="0" arrived="0" entered="0" left="0" laneChangedFrom="0" laneChangedTo="0"/>
        <edge id="-1280060617#1" sampledSeconds="0.00" departed="0" arrived="0" entered="0" left="0" laneChangedFrom="0" laneChangedTo="0"/>
        <edge id="-1280060618" sampledSeconds="0.00" departed="0" arrived="0" entered="0" left="0" laneChangedFrom="0" laneChangedTo="0"/>
        <edge id="-1280073311" sampledSeconds="0.00" departed="0" arrived="0" entered="0" left="0" laneChangedFrom="0" laneChangedTo="0"/>
        <edge id="-1280079384" sampledSeconds="0.00" departed="0" arrived="0" entered="0" left="0" laneChangedFrom="0" laneChangedTo="0"/>
        <edge id="-1280079385#0" sampledSeconds="0.00" departed="0" arrived="0" entered="0" left="0" laneChangedFrom="0" laneChangedTo="0"/>
        <edge id="-1280079388#1" sampledSeconds="346.50" traveltime="11.64" overlapTraveltime="12.83" density="3.42" overlapDensity="3.76" laneDensity="1.71" occupancy="0.80" waitingTime="199.00" timeLoss="284.99" speed="2.34" speedRelative="0.17" departed="0" arrived="0" entered="27" left="27" laneChangedFrom="6" laneChangedTo="6" flow="28.81"/>
        <edge id="-1280084164" sampledSeconds="0.00" departed="0" arrived="0" entered="0" left="0" laneChangedFrom="0" laneChangedTo="0"/>
        <edge id="-1280084165#0" sampledSeconds="0.00" departed="0" arrived="0" entered="0" left="0" laneChangedFrom="0" laneChangedTo="0"/>
        <edge id="-1280084165#1" sampledSeconds="0.00" departed="0" arrived="0" entered="0" left="0" laneChangedFrom="0" laneChangedTo="0"/>
        <edge id="-1280084168#0" sampledSeconds="0.00" departed="0" arrived="0" entered="0" left="0" laneChangedFrom="0" laneChangedTo="0"/>
        <edge id="-1280084173#0" sampledSeconds="0.00" departed="0" arrived="0" entered="0" left="0" laneChangedFrom="0" laneChangedTo="0"/>
        <edge id="-1280084174#1" sampledSeconds="0.00" departed="0" arrived="0" entered="0" left="0" laneChangedFrom="0" laneChangedTo="0"/>
        <edge id="-1280086013" sampledSeconds="104.21" traveltime="3.55" overlapTraveltime="13.53" density="0.35" overlapDensity="1.29" laneDensity="0.35" occupancy="0.47" waitingTime="63.00" timeLoss="89.08" speed="2.00" speedRelative="0.14" departed="0" arrived="2" entered="8" left="6" laneChangedFrom="0" laneChangedTo="0" flow="2.52"/>
        <edge id="-1280828148" sampledSeconds="0.00" departed="0" arrived="0" entered="0" left="0" laneChangedFrom="0" laneChangedTo="0"/>
        <edge id="-1281348522" sampledSeconds="0.00" departed="0" arrived="0" entered="0" left="0" laneChangedFrom="0" laneChangedTo="0"/>
        <edge id="-1281884999" sampledSeconds="8.63" traveltime="1.85" overlapTraveltime="2.25" density="0.12" overlapDensity="0.14" laneDensity="0.12" occupancy="0.05" waitingTime="0.00" timeLoss="2.47" speed="9.84" speedRelative="0.71" departed="0" arrived="4" entered="4" left="0" laneChangedFrom="0" laneChangedTo="0" flow="4.11"/>
        <edge id="-1288391059" sampledSeconds="0.00" departed="0" arrived="0" entered="0" left="0" laneChangedFrom="0" laneChangedTo="0"/>
        <edge id="-1288410664" sampledSeconds="7.73" traveltime="3.32" overlapTraveltime="3.86" density="0.04" overlapDensity="0.05" laneDensity="0.04" occupancy="0.02" waitingTime="0.00" timeLoss="1.24" speed="12.09" speedRelative="0.87" departed="0" arrived="0" entered="2" left="2" laneChangedFrom="0" laneChangedTo="0" flow="1.90"/>
        <edge id="-1288410665" sampledSeconds="0.00" departed="0" arrived="0" entered="0" left="0" laneChangedFrom="0" laneChangedTo="0"/>
        <edge id="-1289152445" sampledSeconds="106.72" traveltime="7.47" overlapTraveltime="8.21" density="0.34" overlapDensity="0.37" laneDensity="0.34" occupancy="0.15" waitingTime="0.00" timeLoss="24.28" speed="10.33" speedRelative="0.74" departed="0" arrived="0" entered="13" left="13" laneChangedFrom="0" laneChangedTo="0" flow="12.49"/>
        <edge id="-1289152448" sampledSeconds="0.00" departed="0" arrived="0" entered="0" left="0" laneChangedFrom="0" laneChangedTo="0"/>
        <edge id="-1289152449" sampledSeconds="3.86" traveltime="3.56" overlapTraveltime="3.88" density="0.02" overlapDensity="0.02" laneDensity="0.02" occupancy="0.01" waitingTime="0.00" timeLoss="0.30" speed="13.37" speedRelative="0.96" departed="0" arrived="1" entered="1" left="0" laneChangedFrom="0" laneChangedTo="0" flow="1.00"/>
        <edge id="-1289152450#0" sampledSeconds="28.10" traveltime="6.31" overlapTraveltime="7.02" density="0.11" overlapDensity="0.12" laneDensity="0.11" occupancy="0.05" waitingTime="0.00" timeLoss="6.72" speed="10.06" speedRelative="0.72" departed="0" arrived="0" entered="4" left="4" laneChangedFrom="0" laneChangedTo="0" flow="3.84"/>
        <edge id="-1289152450#1" sampledSeconds="11.23" traveltime="0.40" overlapTraveltime="1.12" density="0.49" overlapDensity="1.38" laneDensity="0.49" occupancy="0.21" waitingTime="0.00" timeLoss="3.52" speed="6.02" speedRelative="0.43" departed="0" arrived="0" entered="10" left="10" laneChangedFrom="0" laneChangedTo="0" flow="10.65"/>
        <edge id="-1291554831" sampledSeconds="5.83" traveltime="2.03" overlapTraveltime="2.92" density="0.08" overlapDensity="0.12" laneDensity="0.08" occupancy="0.04" waitingTime="0.00" timeLoss="1.75" speed="6.19" speedRelative="0.45" departed="0" arrived="0" entered="2" left="2" laneChangedFrom="0" laneChangedTo="0" flow="1.86"/>
        <edge id="-1291573302" sampledSeconds="0.00" departed="0" arrived="0" entered="0" left="0" laneChangedFrom="0" laneChangedTo="0"/>
        <edge id="-1291931391" sampledSeconds="96.22" traveltime="5.88" overlapTraveltime="6.87" density="2.41" overlapDensity="2.81" laneDensity="2.41" occupancy="1.11" waitingTime="50.00" timeLoss="78.48" speed="2.04" speedRelative="0.15" departed="0" arrived="1" entered="14" left="13" laneChangedFrom="0" laneChangedTo="0" flow="17.65"/>
        <edge id="-1292162268#1" sampledSeconds="15.82" traveltime="3.52" overlapTraveltime="5.27" density="0.19" overlapDensity="0.28" laneDensity="0.09" occupancy="0.05" waitingTime="1.00" timeLoss="7.97" speed="3.82" speedRelative="0.34" departed="0" arrived="0" entered="3" left="3" laneChangedFrom="0" laneChangedTo="0" flow="2.58"/>
        <edge id="-1292162270" sampledSeconds="0.00" departed="0" arrived="0" entered="0" left="0" laneChangedFrom="0" laneChangedTo="0"/>
        <edge id="-1292162271" sampledSeconds="1.98" traveltime="1.37" overlapTraveltime="1.98" density="0.04" overlapDensity="0.05" laneDensity="0.02" occupancy="0.01" waitingTime="0.00" timeLoss="0.19" speed="7.62" speedRelative="0.69" departed="0" arrived="0" entered="1" left="1" laneChangedFrom="0" laneChangedTo="0" flow="0.99"/>
        <edge id="-1292162272#0" sampledSeconds="2.87" traveltime="0.60" overlapTraveltime="1.87" density="0.04" overlapDensity="0.20" laneDensity="0.02" occupancy="0.02" waitingTime="0.00" timeLoss="1.56" speed="4.50" speedRelative="0.40" departed="1" arrived="1" entered="1" left="1" laneChangedFrom="0" laneChangedTo="0" flow="0.69"/>
        <edge id="-1292171261" sampledSeconds="53.12" traveltime="0.60" overlapTraveltime="1.18" density="1.63" overlapDensity="3.21" laneDensity="1.63" occupancy="0.73" waitingTime="0.00" timeLoss="4.67" speed="7.71" speedRelative="0.93" departed="0" arrived="0" entered="45" left="45" laneChangedFrom="0" laneChangedTo="0" flow="45.32"/>